Program Version,EnergyPlus, Version 9.3.0-baff08990c, YMD=2020.05.18 16:46
1,5,Environment Title[],Latitude[deg],Longitude[deg],Time Zone[],Elevation[m]
2,8,Day of Simulation[],Month[],Day of Month[],DST Indicator[1=yes 0=no],Hour[],StartMinute[],EndMinute[],DayType
3,5,Cumulative Day of Simulation[],Month[],Day of Month[],DST Indicator[1=yes 0=no],DayType  ! When Daily Report Variables Requested
4,2,Cumulative Days of Simulation[],Month[]  ! When Monthly Report Variables Requested
5,1,Cumulative Days of Simulation[] ! When Run Period Report Variables Requested
6,1,Calendar Year of Simulation[] ! When Annual Report Variables Requested
8,1,Electricity:Facility [J] !TimeStep
16071,1,Gas:Facility [J] !TimeStep
15374,1,DistrictCooling:Facility [J] !TimeStep
15325,1,DistrictHeating:Facility [J] !TimeStep
End of Data Dictionary
1,RUN PERIOD 1,  47.45,-122.30,  -8.00, 122.00
2,1, 1, 1, 0, 1, 0.00,60.00,Sunday
8,83931595.31340803
15325,569697211.7787047
15374,0.0
16071,0.0
2,1, 1, 1, 0, 2, 0.00,60.00,Sunday
8,61540075.01292066
15325,621194258.8277755
15374,0.0
16071,0.0
2,1, 1, 1, 0, 3, 0.00,60.00,Sunday
8,42635785.73555861
15325,666649151.3214557
15374,0.0
16071,0.0
2,1, 1, 1, 0, 4, 0.00,60.00,Sunday
8,42636554.39443272
15325,659679620.7701122
15374,0.0
16071,0.0
2,1, 1, 1, 0, 5, 0.00,60.00,Sunday
8,61541944.74269102
15325,688963694.0730239
15374,0.0
16071,0.0
2,1, 1, 1, 0, 6, 0.00,60.00,Sunday
8,206912537.5648176
15325,727392166.6830082
15374,0.0
16071,0.0
2,1, 1, 1, 0, 7, 0.00,60.00,Sunday
8,621895888.0285707
15325,736853525.1296896
15374,0.0
16071,0.0
2,1, 1, 1, 0, 8, 0.00,60.00,Sunday
8,665486732.0814781
15325,697885455.6063199
15374,0.0
16071,0.0
2,1, 1, 1, 0, 9, 0.00,60.00,Sunday
8,640881684.6351605
15325,834142396.3555763
15374,0.0
16071,0.0
2,1, 1, 1, 0,10, 0.00,60.00,Sunday
8,548503004.7002965
15325,704404772.6993017
15374,0.0
16071,0.0
2,1, 1, 1, 0,11, 0.00,60.00,Sunday
8,497054780.0905187
15325,635089103.8377509
15374,0.0
16071,0.0
2,1, 1, 1, 0,12, 0.00,60.00,Sunday
8,407884685.73623117
15325,549662124.8290542
15374,0.0
16071,0.0
2,1, 1, 1, 0,13, 0.00,60.00,Sunday
8,361715802.44698926
15325,481825738.25611218
15374,0.0
16071,0.0
2,1, 1, 1, 0,14, 0.00,60.00,Sunday
8,324121123.1156111
15325,452091069.14410719
15374,0.0
16071,0.0
2,1, 1, 1, 0,15, 0.00,60.00,Sunday
8,288462040.7185029
15325,447619995.34383156
15374,0.0
16071,0.0
2,1, 1, 1, 0,16, 0.00,60.00,Sunday
8,326699008.3503294
15325,470148893.71551558
15374,0.0
16071,0.0
2,1, 1, 1, 0,17, 0.00,60.00,Sunday
8,382876097.2983646
15325,582037792.7907202
15374,0.0
16071,0.0
2,1, 1, 1, 0,18, 0.00,60.00,Sunday
8,507892247.8023993
15325,619914906.4380038
15374,0.0
16071,0.0
2,1, 1, 1, 0,19, 0.00,60.00,Sunday
8,589297124.6448022
15325,631129231.1223236
15374,0.0
16071,0.0
2,1, 1, 1, 0,20, 0.00,60.00,Sunday
8,567878756.9940071
15325,659173851.5912382
15374,0.0
16071,0.0
2,1, 1, 1, 0,21, 0.00,60.00,Sunday
8,521916352.9147697
15325,714419261.4444124
15374,0.0
16071,0.0
2,1, 1, 1, 0,22, 0.00,60.00,Sunday
8,436183151.6783788
15325,730521915.7634858
15374,0.0
16071,0.0
2,1, 1, 1, 0,23, 0.00,60.00,Sunday
8,373664653.5577689
15325,747496030.9449024
15374,0.0
16071,0.0
2,1, 1, 1, 0,24, 0.00,60.00,Sunday
8,215878951.95141915
15325,582306651.5862215
15374,0.0
16071,0.0
2,2, 1, 2, 0, 1, 0.00,60.00,Monday
8,83932646.56191175
15325,601840185.4388822
15374,0.0
16071,0.0
2,2, 1, 2, 0, 2, 0.00,60.00,Monday
8,61540614.28685154
15325,656905592.1478562
15374,0.0
16071,0.0
2,2, 1, 2, 0, 3, 0.00,60.00,Monday
8,42635920.413504857
15325,702826352.022648
15374,0.0
16071,0.0
2,2, 1, 2, 0, 4, 0.00,60.00,Monday
8,42636688.480116959
15325,679993609.5446239
15374,0.0
16071,0.0
2,2, 1, 2, 0, 5, 0.00,60.00,Monday
8,61542477.93905556
15325,725476574.0331701
15374,0.0
16071,0.0
2,2, 1, 2, 0, 6, 0.00,60.00,Monday
8,206915897.97615464
15325,819692385.9399926
15374,0.0
16071,0.0
2,2, 1, 2, 0, 7, 0.00,60.00,Monday
8,621906771.6979834
15325,719861458.1787673
15374,0.0
16071,0.0
2,2, 1, 2, 0, 8, 0.00,60.00,Monday
8,667420400.5633937
15325,770014327.5385345
15374,0.0
16071,0.0
2,2, 1, 2, 0, 9, 0.00,60.00,Monday
8,659565629.1619908
15325,854334224.8682838
15374,0.0
16071,0.0
2,2, 1, 2, 0,10, 0.00,60.00,Monday
8,567195536.7536866
15325,694890272.330872
15374,0.0
16071,0.0
2,2, 1, 2, 0,11, 0.00,60.00,Monday
8,515745923.2734273
15325,661708840.3158461
15374,0.0
16071,0.0
2,2, 1, 2, 0,12, 0.00,60.00,Monday
8,426698342.3145061
15325,571470119.7477127
15374,0.0
16071,0.0
2,2, 1, 2, 0,13, 0.00,60.00,Monday
8,378412578.7740765
15325,505913729.66724869
15374,0.0
16071,0.0
2,2, 1, 2, 0,14, 0.00,60.00,Monday
8,342248207.9699896
15325,474778037.3244664
15374,0.0
16071,0.0
2,2, 1, 2, 0,15, 0.00,60.00,Monday
8,307786569.1598604
15325,450769933.7294342
15374,0.0
16071,0.0
2,2, 1, 2, 0,16, 0.00,60.00,Monday
8,345470828.5566384
15325,453904037.2981371
15374,0.0
16071,0.0
2,2, 1, 2, 0,17, 0.00,60.00,Monday
8,401224886.6287819
15325,566777038.3831966
15374,0.0
16071,0.0
2,2, 1, 2, 0,18, 0.00,60.00,Monday
8,510191310.6649595
15325,624021954.278541
15374,0.0
16071,0.0
2,2, 1, 2, 0,19, 0.00,60.00,Monday
8,589268309.5036739
15325,658399769.4116674
15374,0.0
16071,0.0
2,2, 1, 2, 0,20, 0.00,60.00,Monday
8,567856021.066779
15325,709858545.9087266
15374,0.0
16071,0.0
2,2, 1, 2, 0,21, 0.00,60.00,Monday
8,521898999.69542917
15325,749227199.8001229
15374,0.0
16071,0.0
2,2, 1, 2, 0,22, 0.00,60.00,Monday
8,436171212.2575736
15325,744834002.1142486
15374,0.0
16071,0.0
2,2, 1, 2, 0,23, 0.00,60.00,Monday
8,373654795.5307061
15325,743909583.1564916
15374,0.0
16071,0.0
2,2, 1, 2, 0,24, 0.00,60.00,Monday
8,215333335.30062295
15325,595250812.6271196
15374,0.0
16071,0.0
2,3, 1, 3, 0, 1, 0.00,60.00,Tuesday
8,84463769.14178165
15325,637008875.3298766
15374,0.0
16071,0.0
2,3, 1, 3, 0, 2, 0.00,60.00,Tuesday
8,61539999.91103892
15325,656010454.9985328
15374,0.0
16071,0.0
2,3, 1, 3, 0, 3, 0.00,60.00,Tuesday
8,42635766.96839763
15325,680307781.9685145
15374,0.0
16071,0.0
2,3, 1, 3, 0, 4, 0.00,60.00,Tuesday
8,42636535.71027522
15325,655755937.6398915
15374,0.0
16071,0.0
2,3, 1, 3, 0, 5, 0.00,60.00,Tuesday
8,61541870.44805206
15325,665259774.9977443
15374,0.0
16071,0.0
2,3, 1, 3, 0, 6, 0.00,60.00,Tuesday
8,206912069.17139758
15325,683954294.4835758
15374,0.0
16071,0.0
2,3, 1, 3, 0, 7, 0.00,60.00,Tuesday
8,621894370.7543525
15325,615635135.9098883
15374,0.0
16071,0.0
2,3, 1, 3, 0, 8, 0.00,60.00,Tuesday
8,667409607.6055378
15325,646470123.5101917
15374,0.0
16071,0.0
2,3, 1, 3, 0, 9, 0.00,60.00,Tuesday
8,659567838.6912123
15325,733352366.130941
15374,0.0
16071,0.0
2,3, 1, 3, 0,10, 0.00,60.00,Tuesday
8,567187958.0274825
15325,691491903.0329651
15374,0.0
16071,0.0
2,3, 1, 3, 0,11, 0.00,60.00,Tuesday
8,515739926.9900823
15325,686634790.4464542
15374,0.0
16071,0.0
2,3, 1, 3, 0,12, 0.00,60.00,Tuesday
8,426570059.63196668
15325,619293035.4671908
15374,0.0
16071,0.0
2,3, 1, 3, 0,13, 0.00,60.00,Tuesday
8,378667099.5194471
15325,583402364.0252107
15374,0.0
16071,0.0
2,3, 1, 3, 0,14, 0.00,60.00,Tuesday
8,341981147.86208048
15325,545330852.5327351
15374,0.0
16071,0.0
2,3, 1, 3, 0,15, 0.00,60.00,Tuesday
8,308003928.7825696
15325,582968571.5687002
15374,0.0
16071,0.0
2,3, 1, 3, 0,16, 0.00,60.00,Tuesday
8,345499463.66805759
15325,585142641.1964822
15374,0.0
16071,0.0
2,3, 1, 3, 0,17, 0.00,60.00,Tuesday
8,401158642.1584848
15325,580807655.4903822
15374,0.0
16071,0.0
2,3, 1, 3, 0,18, 0.00,60.00,Tuesday
8,510181188.65437719
15325,586520986.7728021
15374,0.0
16071,0.0
2,3, 1, 3, 0,19, 0.00,60.00,Tuesday
8,589257359.0752087
15325,581740868.9549942
15374,0.0
16071,0.0
2,3, 1, 3, 0,20, 0.00,60.00,Tuesday
8,567847383.4159854
15325,580764680.0016633
15374,0.0
16071,0.0
2,3, 1, 3, 0,21, 0.00,60.00,Tuesday
8,521892406.8089151
15325,586013295.9478135
15374,0.0
16071,0.0
2,3, 1, 3, 0,22, 0.00,60.00,Tuesday
8,436166677.295019
15325,588449075.4141593
15374,0.0
16071,0.0
2,3, 1, 3, 0,23, 0.00,60.00,Tuesday
8,373651052.32949736
15325,599471510.207252
15374,0.0
16071,0.0
2,3, 1, 3, 0,24, 0.00,60.00,Tuesday
8,214664510.7206208
15325,441476098.69027408
15374,0.0
16071,0.0
2,4, 1, 4, 0, 1, 0.00,60.00,Wednesday
8,85106182.17708667
15325,481654601.6021835
15374,0.0
16071,0.0
2,4, 1, 4, 0, 2, 0.00,60.00,Wednesday
8,61539902.81210023
15325,494864979.62359228
15374,0.0
16071,0.0
2,4, 1, 4, 0, 3, 0.00,60.00,Wednesday
8,42635742.712135199
15325,517307981.07259556
15374,0.0
16071,0.0
2,4, 1, 4, 0, 4, 0.00,60.00,Wednesday
8,42636511.561026778
15325,525666883.8448705
15374,0.0
16071,0.0
2,4, 1, 4, 0, 5, 0.00,60.00,Wednesday
8,61541774.4194169
15325,553481128.7182442
15374,0.0
16071,0.0
2,4, 1, 4, 0, 6, 0.00,60.00,Wednesday
8,206911464.1469316
15325,550836148.7354407
15374,0.0
16071,0.0
2,4, 1, 4, 0, 7, 0.00,60.00,Wednesday
8,621892409.3608112
15325,518272494.2378917
15374,0.0
16071,0.0
2,4, 1, 4, 0, 8, 0.00,60.00,Wednesday
8,667407900.7386538
15325,532393262.6258094
15374,0.0
16071,0.0
2,4, 1, 4, 0, 9, 0.00,60.00,Wednesday
8,659568193.48057
15325,688039576.9206525
15374,0.0
16071,0.0
2,4, 1, 4, 0,10, 0.00,60.00,Wednesday
8,567186759.3338007
15325,641127574.3243533
15374,0.0
16071,0.0
2,4, 1, 4, 0,11, 0.00,60.00,Wednesday
8,515738978.28197506
15325,641962181.2565774
15374,0.0
16071,0.0
2,4, 1, 4, 0,12, 0.00,60.00,Wednesday
8,426569403.13006368
15325,591021264.7845335
15374,0.0
16071,0.0
2,4, 1, 4, 0,13, 0.00,60.00,Wednesday
8,378666617.0219791
15325,559454026.0399649
15374,0.0
16071,0.0
2,4, 1, 4, 0,14, 0.00,60.00,Wednesday
8,341980742.71963247
15325,532196686.5190411
15374,0.0
16071,0.0
2,4, 1, 4, 0,15, 0.00,60.00,Wednesday
8,308003614.3586829
15325,565708623.829471
15374,0.0
16071,0.0
2,4, 1, 4, 0,16, 0.00,60.00,Wednesday
8,345499140.69343057
15325,551980206.1539137
15374,0.0
16071,0.0
2,4, 1, 4, 0,17, 0.00,60.00,Wednesday
8,401158277.3452985
15325,580635211.7262765
15374,0.0
16071,0.0
2,4, 1, 4, 0,18, 0.00,60.00,Wednesday
8,510180792.45397439
15325,584185418.1824707
15374,0.0
16071,0.0
2,4, 1, 4, 0,19, 0.00,60.00,Wednesday
8,589256927.4760411
15325,578118121.2762902
15374,0.0
16071,0.0
2,4, 1, 4, 0,20, 0.00,60.00,Wednesday
8,567847042.5912714
15325,576083098.8881996
15374,0.0
16071,0.0
2,4, 1, 4, 0,21, 0.00,60.00,Wednesday
8,521892147.0498739
15325,581014423.2078503
15374,0.0
16071,0.0
2,4, 1, 4, 0,22, 0.00,60.00,Wednesday
8,436166498.62638476
15325,585522325.0697165
15374,0.0
16071,0.0
2,4, 1, 4, 0,23, 0.00,60.00,Wednesday
8,373650904.86799868
15325,594379163.5572229
15374,0.0
16071,0.0
2,4, 1, 4, 0,24, 0.00,60.00,Wednesday
8,214638093.20438377
15325,438041829.775709
15374,0.0
16071,0.0
2,5, 1, 5, 0, 1, 0.00,60.00,Thursday
8,85131565.74568634
15325,499326054.7073697
15374,0.0
16071,0.0
2,5, 1, 5, 0, 2, 0.00,60.00,Thursday
8,61539898.975574459
15325,512507425.58295896
15374,0.0
16071,0.0
2,5, 1, 5, 0, 3, 0.00,60.00,Thursday
8,42635741.75372514
15325,533470688.9262363
15374,0.0
16071,0.0
2,5, 1, 5, 0, 4, 0.00,60.00,Thursday
8,42636510.606851149
15325,525010957.82331648
15374,0.0
16071,0.0
2,5, 1, 5, 0, 5, 0.00,60.00,Thursday
8,61541770.62516783
15325,551509046.5287172
15374,0.0
16071,0.0
2,5, 1, 5, 0, 6, 0.00,60.00,Thursday
8,206905377.2611759
15325,547389215.0328572
15374,0.0
16071,0.0
2,5, 1, 5, 0, 7, 0.00,60.00,Thursday
8,621900234.5161216
15325,515555406.5780552
15374,0.0
16071,0.0
2,5, 1, 5, 0, 8, 0.00,60.00,Thursday
8,667407522.202701
15325,512443178.00664117
15374,0.0
16071,0.0
2,5, 1, 5, 0, 9, 0.00,60.00,Thursday
8,659568272.3761226
15325,681116948.2892915
15374,0.0
16071,0.0
2,5, 1, 5, 0,10, 0.00,60.00,Thursday
8,567186493.444565
15325,643547349.780166
15374,0.0
16071,0.0
2,5, 1, 5, 0,11, 0.00,60.00,Thursday
8,515738767.8476828
15325,601037403.9810252
15374,0.0
16071,0.0
2,5, 1, 5, 0,12, 0.00,60.00,Thursday
8,426569258.54622808
15325,529116811.7486847
15374,0.0
16071,0.0
2,5, 1, 5, 0,13, 0.00,60.00,Thursday
8,378666509.9924059
15325,502703341.38986536
15374,0.0
16071,0.0
2,5, 1, 5, 0,14, 0.00,60.00,Thursday
8,341980652.40522679
15325,474466349.52233836
15374,0.0
16071,0.0
2,5, 1, 5, 0,15, 0.00,60.00,Thursday
8,308003544.6174659
15325,451974656.7194355
15374,0.0
16071,0.0
2,5, 1, 5, 0,16, 0.00,60.00,Thursday
8,345499069.0549105
15325,523863395.81685718
15374,0.0
16071,0.0
2,5, 1, 5, 0,17, 0.00,60.00,Thursday
8,401158196.42702659
15325,523653871.9782706
15374,0.0
16071,0.0
2,5, 1, 5, 0,18, 0.00,60.00,Thursday
8,510180704.57341286
15325,531591954.6202953
15374,0.0
16071,0.0
2,5, 1, 5, 0,19, 0.00,60.00,Thursday
8,589256831.7441458
15325,546322034.2156686
15374,0.0
16071,0.0
2,5, 1, 5, 0,20, 0.00,60.00,Thursday
8,567846968.0518607
15325,546117184.1326392
15374,0.0
16071,0.0
2,5, 1, 5, 0,21, 0.00,60.00,Thursday
8,521892089.4147517
15325,571412303.018116
15374,0.0
16071,0.0
2,5, 1, 5, 0,22, 0.00,60.00,Thursday
8,436166458.98362049
15325,576468206.4417468
15374,0.0
16071,0.0
2,5, 1, 5, 0,23, 0.00,60.00,Thursday
8,373650872.14957526
15325,605350744.0090417
15374,0.0
16071,0.0
2,5, 1, 5, 0,24, 0.00,60.00,Thursday
8,214632231.00462366
15325,417762577.2216486
15374,0.0
16071,0.0
2,6, 1, 6, 0, 1, 0.00,60.00,Friday
8,85137198.601993
15325,457667417.92973276
15374,0.0
16071,0.0
2,6, 1, 6, 0, 2, 0.00,60.00,Friday
8,61539898.12421371
15325,469449529.8354577
15374,0.0
16071,0.0
2,6, 1, 6, 0, 3, 0.00,60.00,Friday
8,42635741.54104205
15325,503109129.13306286
15374,0.0
16071,0.0
2,6, 1, 6, 0, 4, 0.00,60.00,Friday
8,42636510.3951074
15325,513326094.3724125
15374,0.0
16071,0.0
2,6, 1, 6, 0, 5, 0.00,60.00,Friday
8,61541769.78318566
15325,545270929.0976372
15374,0.0
16071,0.0
2,6, 1, 6, 0, 6, 0.00,60.00,Friday
8,206903149.15341357
15325,542688631.1549418
15374,0.0
16071,0.0
2,6, 1, 6, 0, 7, 0.00,60.00,Friday
8,621903114.783953
15325,566071292.5916891
15374,0.0
16071,0.0
2,6, 1, 6, 0, 8, 0.00,60.00,Friday
8,667407393.1759243
15325,526035408.14233818
15374,0.0
16071,0.0
2,6, 1, 6, 0, 9, 0.00,60.00,Friday
8,659568299.2851465
15325,716577612.7274437
15374,0.0
16071,0.0
2,6, 1, 6, 0,10, 0.00,60.00,Friday
8,567186402.8124997
15325,589682477.4030365
15374,0.0
16071,0.0
2,6, 1, 6, 0,11, 0.00,60.00,Friday
8,515738696.11856248
15325,532200602.69013717
15374,0.0
16071,0.0
2,6, 1, 6, 0,12, 0.00,60.00,Friday
8,426569209.8789279
15325,471139467.34626027
15374,0.0
16071,0.0
2,6, 1, 6, 0,13, 0.00,60.00,Friday
8,378666473.5044861
15325,487741026.24737408
15374,0.0
16071,0.0
2,6, 1, 6, 0,14, 0.00,60.00,Friday
8,341980622.2152341
15325,480911215.0011736
15374,0.0
16071,0.0
2,6, 1, 6, 0,15, 0.00,60.00,Friday
8,308003520.8383743
15325,501878862.65497866
15374,0.0
16071,0.0
2,6, 1, 6, 0,16, 0.00,60.00,Friday
8,345499044.6288539
15325,506784661.54897359
15374,0.0
16071,0.0
2,6, 1, 6, 0,17, 0.00,60.00,Friday
8,401158168.83694639
15325,536169766.55309137
15374,0.0
16071,0.0
2,6, 1, 6, 0,18, 0.00,60.00,Friday
8,510180674.6094289
15325,525930570.28784546
15374,0.0
16071,0.0
2,6, 1, 6, 0,19, 0.00,60.00,Friday
8,589256799.1031976
15325,520642527.31316199
15374,0.0
16071,0.0
2,6, 1, 6, 0,20, 0.00,60.00,Friday
8,567846941.8339177
15325,521135988.1634251
15374,0.0
16071,0.0
2,6, 1, 6, 0,21, 0.00,60.00,Friday
8,521892069.7779735
15325,547753597.7584239
15374,0.0
16071,0.0
2,6, 1, 6, 0,22, 0.00,60.00,Friday
8,436166445.4769986
15325,551913469.2329742
15374,0.0
16071,0.0
2,6, 1, 6, 0,23, 0.00,60.00,Friday
8,373650861.0021433
15325,585326525.4285476
15374,0.0
16071,0.0
2,6, 1, 6, 0,24, 0.00,60.00,Friday
8,214630233.64445166
15325,433247750.49196669
15374,0.0
16071,0.0
2,7, 1, 7, 0, 1, 0.00,60.00,Saturday
8,85139117.82852176
15325,494432168.43122139
15374,0.0
16071,0.0
2,7, 1, 7, 0, 2, 0.00,60.00,Saturday
8,61539897.83413899
15325,487933797.48521086
15374,0.0
16071,0.0
2,7, 1, 7, 0, 3, 0.00,60.00,Saturday
8,42635741.45174799
15325,529733502.1642401
15374,0.0
16071,0.0
2,7, 1, 7, 0, 4, 0.00,60.00,Saturday
8,42636510.306289847
15325,540714241.3047738
15374,0.0
16071,0.0
2,7, 1, 7, 0, 5, 0.00,60.00,Saturday
8,61541769.49633923
15325,548276984.0076285
15374,0.0
16071,0.0
2,7, 1, 7, 0, 6, 0.00,60.00,Saturday
8,206902390.05593918
15325,526455381.90593549
15374,0.0
16071,0.0
2,7, 1, 7, 0, 7, 0.00,60.00,Saturday
8,621904096.0659213
15325,533130850.6221066
15374,0.0
16071,0.0
2,7, 1, 7, 0, 8, 0.00,60.00,Saturday
8,665483153.2722627
15325,512489064.5828357
15374,0.0
16071,0.0
2,7, 1, 7, 0, 9, 0.00,60.00,Saturday
8,640882427.7517709
15325,664442138.4194316
15374,0.0
16071,0.0
2,7, 1, 7, 0,10, 0.00,60.00,Saturday
8,548500491.2971892
15325,569293852.0654293
15374,0.0
16071,0.0
2,7, 1, 7, 0,11, 0.00,60.00,Saturday
8,497052791.05100777
15325,503075967.84550568
15374,0.0
16071,0.0
2,7, 1, 7, 0,12, 0.00,60.00,Saturday
8,407883310.8256442
15325,419609402.1587204
15374,0.0
16071,0.0
2,7, 1, 7, 0,13, 0.00,60.00,Saturday
8,361714821.1614128
15325,359751091.93665346
15374,0.0
16071,0.0
2,7, 1, 7, 0,14, 0.00,60.00,Saturday
8,323547353.4947293
15325,351287141.0811789
15374,0.0
16071,0.0
2,7, 1, 7, 0,15, 0.00,60.00,Saturday
8,289079834.8042389
15325,370283340.2093746
15374,0.0
16071,0.0
2,7, 1, 7, 0,16, 0.00,60.00,Saturday
8,326784980.99910476
15325,375615294.2543688
15374,0.0
16071,0.0
2,7, 1, 7, 0,17, 0.00,60.00,Saturday
8,382488058.9472983
15325,449434199.38410899
15374,0.0
16071,0.0
2,7, 1, 7, 0,18, 0.00,60.00,Saturday
8,508273575.8598609
15325,470053880.5142088
15374,0.0
16071,0.0
2,7, 1, 7, 0,19, 0.00,60.00,Saturday
8,589275427.4403079
15325,493223077.30344668
15374,0.0
16071,0.0
2,7, 1, 7, 0,20, 0.00,60.00,Saturday
8,567861635.379278
15325,500992358.3057032
15374,0.0
16071,0.0
2,7, 1, 7, 0,21, 0.00,60.00,Saturday
8,521903284.64075067
15325,533599621.84740486
15374,0.0
16071,0.0
2,7, 1, 7, 0,22, 0.00,60.00,Saturday
8,436174160.0771253
15325,561704487.7350583
15374,0.0
16071,0.0
2,7, 1, 7, 0,23, 0.00,60.00,Saturday
8,373657229.03778186
15325,632779721.3171079
15374,0.0
16071,0.0
2,7, 1, 7, 0,24, 0.00,60.00,Saturday
8,215766346.91039378
15325,487915238.0005877
15374,0.0
16071,0.0
2,8, 1, 8, 0, 1, 0.00,60.00,Sunday
8,84048097.39001848
15325,482196211.7689873
15374,0.0
16071,0.0
2,8, 1, 8, 0, 2, 0.00,60.00,Sunday
8,61540062.74088556
15325,493417929.3966252
15374,0.0
16071,0.0
2,8, 1, 8, 0, 3, 0.00,60.00,Sunday
8,42635782.66369324
15325,496822709.60098049
15374,0.0
16071,0.0
2,8, 1, 8, 0, 4, 0.00,60.00,Sunday
8,42636551.336360778
15325,507023444.2051111
15374,0.0
16071,0.0
2,8, 1, 8, 0, 5, 0.00,60.00,Sunday
8,61541932.58477245
15325,516062424.29968789
15374,0.0
16071,0.0
2,8, 1, 8, 0, 6, 0.00,60.00,Sunday
8,206912460.9130138
15325,497909104.94642338
15374,0.0
16071,0.0
2,8, 1, 8, 0, 7, 0.00,60.00,Sunday
8,621895639.7297975
15325,485268231.613907
15374,0.0
16071,0.0
2,8, 1, 8, 0, 8, 0.00,60.00,Sunday
8,665486515.9951714
15325,481808361.2189732
15374,0.0
16071,0.0
2,8, 1, 8, 0, 9, 0.00,60.00,Sunday
8,640881729.3258245
15325,639845480.2356138
15374,0.0
16071,0.0
2,8, 1, 8, 0,10, 0.00,60.00,Sunday
8,548502852.9540565
15325,693580145.7869879
15374,0.0
16071,0.0
2,8, 1, 8, 0,11, 0.00,60.00,Sunday
8,497054660.04296079
15325,737831816.8574073
15374,0.0
16071,0.0
2,8, 1, 8, 0,12, 0.00,60.00,Sunday
8,407884603.53104707
15325,712067070.8882933
15374,0.0
16071,0.0
2,8, 1, 8, 0,13, 0.00,60.00,Sunday
8,361847830.7023056
15325,690092748.7129068
15374,0.0
16071,0.0
2,8, 1, 8, 0,14, 0.00,60.00,Sunday
8,323295526.84597018
15325,697441146.9958267
15374,0.0
16071,0.0
2,8, 1, 8, 0,15, 0.00,60.00,Sunday
8,289318251.614697
15325,696073625.082624
15374,0.0
16071,0.0
2,8, 1, 8, 0,16, 0.00,60.00,Sunday
8,326813792.0297855
15325,696026973.7877479
15374,0.0
16071,0.0
2,8, 1, 8, 0,17, 0.00,60.00,Sunday
8,382472997.59106579
15325,672562442.4670161
15374,0.0
16071,0.0
2,8, 1, 8, 0,18, 0.00,60.00,Sunday
8,508257249.0485561
15325,655618572.4898437
15374,0.0
16071,0.0
2,8, 1, 8, 0,19, 0.00,60.00,Sunday
8,589257638.3193979
15325,643873914.0812492
15374,0.0
16071,0.0
2,8, 1, 8, 0,20, 0.00,60.00,Sunday
8,567847603.624561
15325,624659520.6980631
15374,0.0
16071,0.0
2,8, 1, 8, 0,21, 0.00,60.00,Sunday
8,521892574.8804417
15325,610055164.8264713
15374,0.0
16071,0.0
2,8, 1, 8, 0,22, 0.00,60.00,Sunday
8,436166792.8990777
15325,611804214.4120652
15374,0.0
16071,0.0
2,8, 1, 8, 0,23, 0.00,60.00,Sunday
8,373651147.7421179
15325,619930733.5620203
15374,0.0
16071,0.0
2,8, 1, 8, 0,24, 0.00,60.00,Sunday
8,214681600.84534423
15325,462233404.1922766
15374,0.0
16071,0.0
2,9, 1, 9, 0, 1, 0.00,60.00,Monday
8,85089761.31316692
15325,469216839.86297878
15374,0.0
16071,0.0
2,9, 1, 9, 0, 2, 0.00,60.00,Monday
8,61539905.29398256
15325,496842834.6655173
15374,0.0
16071,0.0
2,9, 1, 9, 0, 3, 0.00,60.00,Monday
8,42635743.33213562
15325,572440153.78586
15374,0.0
16071,0.0
2,9, 1, 9, 0, 4, 0.00,60.00,Monday
8,42636512.178293619
15325,562230919.165679
15374,0.0
16071,0.0
2,9, 1, 9, 0, 5, 0.00,60.00,Monday
8,61541776.87395223
15325,551092309.7486875
15374,0.0
16071,0.0
2,9, 1, 9, 0, 6, 0.00,60.00,Monday
8,206911479.18583197
15325,564294477.308383
15374,0.0
16071,0.0
2,9, 1, 9, 0, 7, 0.00,60.00,Monday
8,621892459.5044903
15325,550345227.4238924
15374,0.0
16071,0.0
2,9, 1, 9, 0, 8, 0.00,60.00,Monday
8,667407944.3734824
15325,530192113.9305999
15374,0.0
16071,0.0
2,9, 1, 9, 0, 9, 0.00,60.00,Monday
8,659568184.3923141
15325,693700028.9099871
15374,0.0
16071,0.0
2,9, 1, 9, 0,10, 0.00,60.00,Monday
8,567186789.9780524
15325,658576901.8467991
15374,0.0
16071,0.0
2,9, 1, 9, 0,11, 0.00,60.00,Monday
8,515739002.5350341
15325,664635904.0977076
15374,0.0
16071,0.0
2,9, 1, 9, 0,12, 0.00,60.00,Monday
8,426569420.0994747
15325,638080473.6689434
15374,0.0
16071,0.0
2,9, 1, 9, 0,13, 0.00,60.00,Monday
8,378666629.3545626
15325,612253952.3657185
15374,0.0
16071,0.0
2,9, 1, 9, 0,14, 0.00,60.00,Monday
8,341980753.41183438
15325,603077296.9251026
15374,0.0
16071,0.0
2,9, 1, 9, 0,15, 0.00,60.00,Monday
8,308003622.3930586
15325,583835593.1045061
15374,0.0
16071,0.0
2,9, 1, 9, 0,16, 0.00,60.00,Monday
8,345499148.9463648
15325,531900972.91181167
15374,0.0
16071,0.0
2,9, 1, 9, 0,17, 0.00,60.00,Monday
8,401158286.6672937
15325,497183400.1154653
15374,0.0
16071,0.0
2,9, 1, 9, 0,18, 0.00,60.00,Monday
8,510180802.57803168
15325,496416288.7218311
15374,0.0
16071,0.0
2,9, 1, 9, 0,19, 0.00,60.00,Monday
8,589256938.5045972
15325,467884780.0941513
15374,0.0
16071,0.0
2,9, 1, 9, 0,20, 0.00,60.00,Monday
8,567847053.7574811
15325,458433590.7592907
15374,0.0
16071,0.0
2,9, 1, 9, 0,21, 0.00,60.00,Monday
8,521892153.6428045
15325,473492474.32898709
15374,0.0
16071,0.0
2,9, 1, 9, 0,22, 0.00,60.00,Monday
8,436166504.438216
15325,473492804.53579786
15374,0.0
16071,0.0
2,9, 1, 9, 0,23, 0.00,60.00,Monday
8,373650908.5977468
15325,500049389.34468427
15374,0.0
16071,0.0
2,9, 1, 9, 0,24, 0.00,60.00,Monday
8,214638761.44349737
15325,346425787.0113165
15374,0.0
16071,0.0
2,10, 1,10, 0, 1, 0.00,60.00,Tuesday
8,85130923.78313221
15325,385359534.13869419
15374,0.0
16071,0.0
2,10, 1,10, 0, 2, 0.00,60.00,Tuesday
8,61539899.09562185
15325,416017135.91629007
15374,0.0
16071,0.0
2,10, 1,10, 0, 3, 0.00,60.00,Tuesday
8,42635741.78359123
15325,452724985.7351311
15374,0.0
16071,0.0
2,10, 1,10, 0, 4, 0.00,60.00,Tuesday
8,42636510.636556629
15325,446214626.9667492
15374,0.0
16071,0.0
2,10, 1,10, 0, 5, 0.00,60.00,Tuesday
8,61541770.743546109
15325,469942361.02493318
15374,0.0
16071,0.0
2,10, 1,10, 0, 6, 0.00,60.00,Tuesday
8,206905631.12146024
15325,465310140.3896614
15374,0.0
16071,0.0
2,10, 1,10, 0, 7, 0.00,60.00,Tuesday
8,621899906.5468563
15325,451541914.40997609
15374,0.0
16071,0.0
2,10, 1,10, 0, 8, 0.00,60.00,Tuesday
8,667407536.8947207
15325,445755809.56458446
15374,0.0
16071,0.0
2,10, 1,10, 0, 9, 0.00,60.00,Tuesday
8,659568269.3125774
15325,600737483.0521563
15374,0.0
16071,0.0
2,10, 1,10, 0,10, 0.00,60.00,Tuesday
8,567186503.764635
15325,601219428.4317378
15374,0.0
16071,0.0
2,10, 1,10, 0,11, 0.00,60.00,Tuesday
8,515738778.2677206
15325,566537819.3324494
15374,0.0
16071,0.0
2,10, 1,10, 0,12, 0.00,60.00,Tuesday
8,426569265.6403601
15325,552678400.9462503
15374,0.0
16071,0.0
2,10, 1,10, 0,13, 0.00,60.00,Tuesday
8,378666514.1084928
15325,504615153.0971339
15374,0.0
16071,0.0
2,10, 1,10, 0,14, 0.00,60.00,Tuesday
8,341980656.73233196
15325,502883678.77577349
15374,0.0
16071,0.0
2,10, 1,10, 0,15, 0.00,60.00,Tuesday
8,308003547.98538669
15325,500046367.47167858
15374,0.0
16071,0.0
2,10, 1,10, 0,16, 0.00,60.00,Tuesday
8,345499071.80073627
15325,502437575.8261092
15374,0.0
16071,0.0
2,10, 1,10, 0,17, 0.00,60.00,Tuesday
8,401158200.3269964
15325,524018336.82961079
15374,0.0
16071,0.0
2,10, 1,10, 0,18, 0.00,60.00,Tuesday
8,510180708.9252447
15325,564055130.6983695
15374,0.0
16071,0.0
2,10, 1,10, 0,19, 0.00,60.00,Tuesday
8,589256836.4175391
15325,549751392.8516317
15374,0.0
16071,0.0
2,10, 1,10, 0,20, 0.00,60.00,Tuesday
8,567846970.6687386
15325,547443297.015077
15374,0.0
16071,0.0
2,10, 1,10, 0,21, 0.00,60.00,Tuesday
8,521892092.21160235
15325,549967677.8369138
15374,0.0
16071,0.0
2,10, 1,10, 0,22, 0.00,60.00,Tuesday
8,436166460.89353778
15325,569086608.120477
15374,0.0
16071,0.0
2,10, 1,10, 0,23, 0.00,60.00,Tuesday
8,373650873.6886336
15325,560138503.3737747
15374,0.0
16071,0.0
2,10, 1,10, 0,24, 0.00,60.00,Tuesday
8,214632450.056702
15325,409892703.67961129
15374,0.0
16071,0.0
2,11, 1,11, 0, 1, 0.00,60.00,Wednesday
8,85136988.26605298
15325,458683881.5277502
15374,0.0
16071,0.0
2,11, 1,11, 0, 2, 0.00,60.00,Wednesday
8,61539898.16354603
15325,508158685.27662578
15374,0.0
16071,0.0
2,11, 1,11, 0, 3, 0.00,60.00,Wednesday
8,42635741.550831738
15325,531090125.60992339
15374,0.0
16071,0.0
2,11, 1,11, 0, 4, 0.00,60.00,Wednesday
8,42636510.4048406
15325,559605845.2833707
15374,0.0
16071,0.0
2,11, 1,11, 0, 5, 0.00,60.00,Wednesday
8,61541769.82197346
15325,545672547.1811354
15374,0.0
16071,0.0
2,11, 1,11, 0, 6, 0.00,60.00,Wednesday
8,206903232.33129666
15325,544395792.8313084
15374,0.0
16071,0.0
2,11, 1,11, 0, 7, 0.00,60.00,Wednesday
8,621903007.324245
15325,510118378.10892626
15374,0.0
16071,0.0
2,11, 1,11, 0, 8, 0.00,60.00,Wednesday
8,667407397.9897639
15325,502012586.6072991
15374,0.0
16071,0.0
2,11, 1,11, 0, 9, 0.00,60.00,Wednesday
8,659568298.56089
15325,663079549.4675331
15374,0.0
16071,0.0
2,11, 1,11, 0,10, 0.00,60.00,Wednesday
8,567186407.1727381
15325,620258352.2774006
15374,0.0
16071,0.0
2,11, 1,11, 0,11, 0.00,60.00,Wednesday
8,515738698.76988396
15325,524980761.84829738
15374,0.0
16071,0.0
2,11, 1,11, 0,12, 0.00,60.00,Wednesday
8,426569209.5892179
15325,477670543.3475553
15374,0.0
16071,0.0
2,11, 1,11, 0,13, 0.00,60.00,Wednesday
8,378666475.2469139
15325,433520466.19339886
15374,0.0
16071,0.0
2,11, 1,11, 0,14, 0.00,60.00,Wednesday
8,341980623.6504141
15325,441801787.37699756
15374,0.0
16071,0.0
2,11, 1,11, 0,15, 0.00,60.00,Wednesday
8,308003521.95541247
15325,435596341.59838417
15374,0.0
16071,0.0
2,11, 1,11, 0,16, 0.00,60.00,Wednesday
8,345499045.7864912
15325,433338968.97904589
15374,0.0
16071,0.0
2,11, 1,11, 0,17, 0.00,60.00,Wednesday
8,401158170.127917
15325,444437402.9750986
15374,0.0
16071,0.0
2,11, 1,11, 0,18, 0.00,60.00,Wednesday
8,510180676.0499776
15325,481086107.7603655
15374,0.0
16071,0.0
2,11, 1,11, 0,19, 0.00,60.00,Wednesday
8,589256800.3082203
15325,498887516.3791207
15374,0.0
16071,0.0
2,11, 1,11, 0,20, 0.00,60.00,Wednesday
8,567846943.0539749
15325,502734565.34176477
15374,0.0
16071,0.0
2,11, 1,11, 0,21, 0.00,60.00,Wednesday
8,521892070.7027824
15325,511750091.4402727
15374,0.0
16071,0.0
2,11, 1,11, 0,22, 0.00,60.00,Wednesday
8,436166446.10853657
15325,538605367.9680355
15374,0.0
16071,0.0
2,11, 1,11, 0,23, 0.00,60.00,Wednesday
8,373650861.5110538
15325,552316027.1105682
15374,0.0
16071,0.0
2,11, 1,11, 0,24, 0.00,60.00,Wednesday
8,214630306.07820643
15325,388152860.59290507
15374,0.0
16071,0.0
2,12, 1,12, 0, 1, 0.00,60.00,Thursday
8,85139048.26531972
15325,465602442.0908703
15374,0.0
16071,0.0
2,12, 1,12, 0, 2, 0.00,60.00,Thursday
8,61539897.847148
15325,498438465.7304942
15374,0.0
16071,0.0
2,12, 1,12, 0, 3, 0.00,60.00,Thursday
8,42635741.45498494
15325,502787820.2199851
15374,0.0
16071,0.0
2,12, 1,12, 0, 4, 0.00,60.00,Thursday
8,42636510.309504639
15325,514327515.4000124
15374,0.0
16071,0.0
2,12, 1,12, 0, 5, 0.00,60.00,Thursday
8,61541769.50916352
15325,541949188.2880432
15374,0.0
16071,0.0
2,12, 1,12, 0, 6, 0.00,60.00,Thursday
8,206902417.56510333
15325,555150845.7812808
15374,0.0
16071,0.0
2,12, 1,12, 0, 7, 0.00,60.00,Thursday
8,621904059.4400579
15325,489820379.7479846
15374,0.0
16071,0.0
2,12, 1,12, 0, 8, 0.00,60.00,Thursday
8,667407351.3229897
15325,501577033.1851827
15374,0.0
16071,0.0
2,12, 1,12, 0, 9, 0.00,60.00,Thursday
8,659568307.9365653
15325,671315067.5345215
15374,0.0
16071,0.0
2,12, 1,12, 0,10, 0.00,60.00,Thursday
8,567186373.3577298
15325,634068785.0266285
15374,0.0
16071,0.0
2,12, 1,12, 0,11, 0.00,60.00,Thursday
8,515738672.78426888
15325,616313434.819927
15374,0.0
16071,0.0
2,12, 1,12, 0,12, 0.00,60.00,Thursday
8,426569192.1975339
15325,567742349.556086
15374,0.0
16071,0.0
2,12, 1,12, 0,13, 0.00,60.00,Thursday
8,378666461.5235835
15325,514561372.63265976
15374,0.0
16071,0.0
2,12, 1,12, 0,14, 0.00,60.00,Thursday
8,341980612.49721148
15325,481072656.6014508
15374,0.0
16071,0.0
2,12, 1,12, 0,15, 0.00,60.00,Thursday
8,308003513.02932658
15325,478600940.30155637
15374,0.0
16071,0.0
2,12, 1,12, 0,16, 0.00,60.00,Thursday
8,345499036.6073362
15325,499579586.03492978
15374,0.0
16071,0.0
2,12, 1,12, 0,17, 0.00,60.00,Thursday
8,401158159.77636656
15325,491218672.67103776
15374,0.0
16071,0.0
2,12, 1,12, 0,18, 0.00,60.00,Thursday
8,510180664.76925316
15325,516732011.3813782
15374,0.0
16071,0.0
2,12, 1,12, 0,19, 0.00,60.00,Thursday
8,589256785.3419061
15325,547780767.4290065
15374,0.0
16071,0.0
2,12, 1,12, 0,20, 0.00,60.00,Thursday
8,567846931.0632911
15325,566943960.7307186
15374,0.0
16071,0.0
2,12, 1,12, 0,21, 0.00,60.00,Thursday
8,521892063.41862228
15325,625464197.1320778
15374,0.0
16071,0.0
2,12, 1,12, 0,22, 0.00,60.00,Thursday
8,436166441.8229659
15325,631789304.4117558
15374,0.0
16071,0.0
2,12, 1,12, 0,23, 0.00,60.00,Thursday
8,373650857.3847625
15325,624373646.6801386
15374,0.0
16071,0.0
2,12, 1,12, 0,24, 0.00,60.00,Thursday
8,214629585.5052243
15325,449250332.55971857
15374,0.0
16071,0.0
2,13, 1,13, 0, 1, 0.00,60.00,Friday
8,85139740.2835368
15325,489401756.6473535
15374,0.0
16071,0.0