Program Version,EnergyPlus, Version 9.3.0-baff08990c, YMD=2020.05.22 11:12
1,5,Environment Title[],Latitude[deg],Longitude[deg],Time Zone[],Elevation[m]
2,8,Day of Simulation[],Month[],Day of Month[],DST Indicator[1=yes 0=no],Hour[],StartMinute[],EndMinute[],DayType
3,5,Cumulative Day of Simulation[],Month[],Day of Month[],DST Indicator[1=yes 0=no],DayType  ! When Daily Report Variables Requested
4,2,Cumulative Days of Simulation[],Month[]  ! When Monthly Report Variables Requested
5,1,Cumulative Days of Simulation[] ! When Run Period Report Variables Requested
6,1,Calendar Year of Simulation[] ! When Annual Report Variables Requested
8,1,Electricity:Facility [J] !TimeStep
16071,1,Gas:Facility [J] !TimeStep
15374,1,DistrictCooling:Facility [J] !TimeStep
15325,1,DistrictHeating:Facility [J] !TimeStep
End of Data Dictionary
1,RUN PERIOD 1,  47.45,-122.30,  -8.00, 122.00
2,1, 1, 1, 0, 1, 0.00,60.00,Sunday
8,378940835.8103481
15325,697677537.3889757
15374,0.0
16071,0.0
2,1, 1, 1, 0, 2, 0.00,60.00,Sunday
8,236103451.93907426
15325,820201044.2038244
15374,0.0
16071,0.0
2,1, 1, 1, 0, 3, 0.00,60.00,Sunday
8,132174916.76829182
15325,912162264.928085
15374,0.0
16071,0.0
2,1, 1, 1, 0, 4, 0.00,60.00,Sunday
8,129010397.12207276
15325,924270284.9452326
15374,0.0
16071,0.0
2,1, 1, 1, 0, 5, 0.00,60.00,Sunday
8,238369432.9251351
15325,982905230.89121
15374,0.0
16071,0.0
2,1, 1, 1, 0, 6, 0.00,60.00,Sunday
8,1085417108.8611274
15325,1175895621.680946
15374,0.0
16071,0.0
2,1, 1, 1, 0, 7, 0.00,60.00,Sunday
8,3236763948.812603
15325,1150859421.5025657
15374,0.0
16071,0.0
2,1, 1, 1, 0, 8, 0.00,60.00,Sunday
8,3270734315.1289908
15325,1137220927.7733365
15374,0.0
16071,0.0
2,1, 1, 1, 0, 9, 0.00,60.00,Sunday
8,3254826231.1664745
15325,1456611270.9554003
15374,0.0
16071,0.0
2,1, 1, 1, 0,10, 0.00,60.00,Sunday
8,3134160003.7279398
15325,1263243613.4546099
15374,0.0
16071,0.0
2,1, 1, 1, 0,11, 0.00,60.00,Sunday
8,2830654225.458372
15325,1050964807.1412331
15374,0.0
16071,0.0
2,1, 1, 1, 0,12, 0.00,60.00,Sunday
8,2301065506.674374
15325,900870312.341528
15374,0.0
16071,0.0
2,1, 1, 1, 0,13, 0.00,60.00,Sunday
8,2007517523.3311988
15325,786650485.6855534
15374,0.0
16071,0.0
2,1, 1, 1, 0,14, 0.00,60.00,Sunday
8,1791854460.2353452
15325,740768733.6556687
15374,0.0
16071,0.0
2,1, 1, 1, 0,15, 0.00,60.00,Sunday
8,1582746721.1646789
15325,691979200.0815268
15374,0.0
16071,0.0
2,1, 1, 1, 0,16, 0.00,60.00,Sunday
8,1793094914.7090696
15325,679801972.2580448
15374,0.0
16071,0.0
2,1, 1, 1, 0,17, 0.00,60.00,Sunday
8,2127799927.196431
15325,817895684.9619918
15374,0.0
16071,0.0
2,1, 1, 1, 0,18, 0.00,60.00,Sunday
8,2823632177.9093596
15325,880347063.405512
15374,0.0
16071,0.0
2,1, 1, 1, 0,19, 0.00,60.00,Sunday
8,3291901657.338421
15325,910343230.5499821
15374,0.0
16071,0.0
2,1, 1, 1, 0,20, 0.00,60.00,Sunday
8,3180111588.8854129
15325,970627895.1507766
15374,0.0
16071,0.0
2,1, 1, 1, 0,21, 0.00,60.00,Sunday
8,2892105369.3089067
15325,1087270643.9868754
15374,0.0
16071,0.0
2,1, 1, 1, 0,22, 0.00,60.00,Sunday
8,2376680304.6452305
15325,1134392946.5057705
15374,0.0
16071,0.0
2,1, 1, 1, 0,23, 0.00,60.00,Sunday
8,2059472996.7148104
15325,1105310327.2444869
15374,0.0
16071,0.0
2,1, 1, 1, 0,24, 0.00,60.00,Sunday
8,1137442661.3046694
15325,702810764.3028663
15374,0.0
16071,0.0
2,2, 1, 2, 0, 1, 0.00,60.00,Monday
8,380052064.6608423
15325,737994747.9796739
15374,0.0
16071,0.0
2,2, 1, 2, 0, 2, 0.00,60.00,Monday
8,238320122.43793548
15325,874119106.0325841
15374,0.0
16071,0.0
2,2, 1, 2, 0, 3, 0.00,60.00,Monday
8,129019914.6573946
15325,966627383.3605261
15374,0.0
16071,0.0
2,2, 1, 2, 0, 4, 0.00,60.00,Monday
8,132173604.55601919
15325,958323161.2765877
15374,0.0
16071,0.0
2,2, 1, 2, 0, 5, 0.00,60.00,Monday
8,237066985.27211324
15325,1037618618.5843214
15374,0.0
16071,0.0
2,2, 1, 2, 0, 6, 0.00,60.00,Monday
8,1084857285.7191053
15325,1334115733.66709
15374,0.0
16071,0.0
2,2, 1, 2, 0, 7, 0.00,60.00,Monday
8,3238050655.6289417
15325,1135634476.457777
15374,0.0
16071,0.0
2,2, 1, 2, 0, 8, 0.00,60.00,Monday
8,3272658511.0745198
15325,1275202304.8669797
15374,0.0
16071,0.0
2,2, 1, 2, 0, 9, 0.00,60.00,Monday
8,3273512111.7675549
15325,1541868618.3025788
15374,0.0
16071,0.0
2,2, 1, 2, 0,10, 0.00,60.00,Monday
8,3169057256.211014
15325,1273594848.257049
15374,0.0
16071,0.0
2,2, 1, 2, 0,11, 0.00,60.00,Monday
8,2849393414.5321257
15325,1116510389.2822493
15374,0.0
16071,0.0
2,2, 1, 2, 0,12, 0.00,60.00,Monday
8,2318236568.835914
15325,958903468.4649823
15374,2774416.964056149
16071,0.0
2,2, 1, 2, 0,13, 0.00,60.00,Monday
8,2024665062.4127846
15325,849628206.5099982
15374,8475204.446005449
16071,0.0
2,2, 1, 2, 0,14, 0.00,60.00,Monday
8,1812145042.402866
15325,808061975.7089627
15374,11326553.371208387
16071,0.0
2,2, 1, 2, 0,15, 0.00,60.00,Monday
8,1598193156.6194888
15325,730676094.7704005
15374,14031154.988465235
16071,0.0
2,2, 1, 2, 0,16, 0.00,60.00,Monday
8,1814838876.232963
15325,682280037.6696737
15374,12724263.81400067
16071,0.0
2,2, 1, 2, 0,17, 0.00,60.00,Monday
8,2146477753.728132
15325,806158190.4601183
15374,0.0
16071,0.0
2,2, 1, 2, 0,18, 0.00,60.00,Monday
8,2825549089.162273
15325,868263952.737635
15374,0.0
16071,0.0
2,2, 1, 2, 0,19, 0.00,60.00,Monday
8,3291891834.2203328
15325,939552093.1589136
15374,0.0
16071,0.0
2,2, 1, 2, 0,20, 0.00,60.00,Monday
8,3180042030.9570367
15325,1039325097.8057898
15374,0.0
16071,0.0
2,2, 1, 2, 0,21, 0.00,60.00,Monday
8,2892014014.5994656
15325,1137612275.426227
15374,0.0
16071,0.0
2,2, 1, 2, 0,22, 0.00,60.00,Monday
8,2379002234.745474
15325,1154346423.8689483
15374,0.0
16071,0.0
2,2, 1, 2, 0,23, 0.00,60.00,Monday
8,2059243983.1678439
15325,1097452079.0976747
15374,0.0
16071,0.0
2,2, 1, 2, 0,24, 0.00,60.00,Monday
8,1137387250.3078292
15325,715071501.6951702
15374,0.0
16071,0.0
2,3, 1, 3, 0, 1, 0.00,60.00,Tuesday
8,380051521.84209296
15325,787571032.6199355
15374,0.0
16071,0.0
2,3, 1, 3, 0, 2, 0.00,60.00,Tuesday
8,235055272.2524443
15325,875106255.6727058
15374,0.0
16071,0.0
2,3, 1, 3, 0, 3, 0.00,60.00,Tuesday
8,132182112.86677133
15325,936444626.4578798
15374,0.0
16071,0.0
2,3, 1, 3, 0, 4, 0.00,60.00,Tuesday
8,129010365.38303198
15325,923910247.1878873
15374,0.0
16071,0.0
2,3, 1, 3, 0, 5, 0.00,60.00,Tuesday
8,238382006.1582777
15325,954138017.2610754
15374,0.0
16071,0.0
2,3, 1, 3, 0, 6, 0.00,60.00,Tuesday
8,1085411514.286237
15325,1109826764.060225
15374,0.0
16071,0.0
2,3, 1, 3, 0, 7, 0.00,60.00,Tuesday
8,3237016477.253123
15325,958938354.1825155
15374,0.0
16071,0.0
2,3, 1, 3, 0, 8, 0.00,60.00,Tuesday
8,3272658511.0745198
15325,1064921140.1420766
15374,0.0
16071,0.0
2,3, 1, 3, 0, 9, 0.00,60.00,Tuesday
8,3273512111.7675549
15325,1402324352.81407
15374,0.0
16071,0.0
2,3, 1, 3, 0,10, 0.00,60.00,Tuesday
8,3152845884.3290197
15325,1390958509.0323923
15374,0.0
16071,0.0
2,3, 1, 3, 0,11, 0.00,60.00,Tuesday
8,2849452501.643751
15325,1264241940.2658325
15374,0.0
16071,0.0
2,3, 1, 3, 0,12, 0.00,60.00,Tuesday
8,2319529715.7538278
15325,1129976735.5276068
15374,0.0
16071,0.0
2,3, 1, 3, 0,13, 0.00,60.00,Tuesday
8,2024333988.61733
15325,1049291403.136601
15374,0.0
16071,0.0
2,3, 1, 3, 0,14, 0.00,60.00,Tuesday
8,1810756031.5777772
15325,968341173.3567617
15374,0.0
16071,0.0
2,3, 1, 3, 0,15, 0.00,60.00,Tuesday
8,1601587539.879028
15325,1025113203.8476453
15374,0.0
16071,0.0
2,3, 1, 3, 0,16, 0.00,60.00,Tuesday
8,1811591774.662418
15325,1029018763.0119834
15374,0.0
16071,0.0
2,3, 1, 3, 0,17, 0.00,60.00,Tuesday
8,2146450197.0444685
15325,1002072084.1603755
15374,0.0
16071,0.0
2,3, 1, 3, 0,18, 0.00,60.00,Tuesday
8,2825552159.570301
15325,945199721.3630043
15374,0.0
16071,0.0
2,3, 1, 3, 0,19, 0.00,60.00,Tuesday
8,3291919757.691459
15325,920474359.8792834
15374,0.0
16071,0.0
2,3, 1, 3, 0,20, 0.00,60.00,Tuesday
8,3180064102.2050836
15325,922599816.4087012
15374,0.0
16071,0.0
2,3, 1, 3, 0,21, 0.00,60.00,Tuesday
8,2892062503.4148986
15325,948498327.907952
15374,0.0
16071,0.0
2,3, 1, 3, 0,22, 0.00,60.00,Tuesday
8,2380621754.3708808
15325,957239368.693716
15374,0.0
16071,0.0
2,3, 1, 3, 0,23, 0.00,60.00,Tuesday
8,2058892671.2579349
15325,938979094.6621065
15374,0.0
16071,0.0
2,3, 1, 3, 0,24, 0.00,60.00,Tuesday
8,1135968405.9214998
15325,549871058.9567381
15374,0.0
16071,0.0
2,4, 1, 4, 0, 1, 0.00,60.00,Wednesday
8,378956724.78389576
15325,605281451.7593279
15374,0.0
16071,0.0
2,4, 1, 4, 0, 2, 0.00,60.00,Wednesday
8,237067041.96336539
15325,675373256.2040693
15374,0.0
16071,0.0
2,4, 1, 4, 0, 3, 0.00,60.00,Wednesday
8,132174699.06537199
15325,713157311.4453504
15374,0.0
16071,0.0
2,4, 1, 4, 0, 4, 0.00,60.00,Wednesday
8,129010197.58477181
15325,735455405.2063633
15374,0.0
16071,0.0
2,4, 1, 4, 0, 5, 0.00,60.00,Wednesday
8,238360416.86161194
15325,789631507.5333114
15374,0.0
16071,0.0
2,4, 1, 4, 0, 6, 0.00,60.00,Wednesday
8,1085417457.2743107
15325,865919559.2651813
15374,0.0
16071,0.0
2,4, 1, 4, 0, 7, 0.00,60.00,Wednesday
8,3236756263.9817945
15325,766109863.1003118
15374,0.0
16071,0.0
2,4, 1, 4, 0, 8, 0.00,60.00,Wednesday
8,3272658511.0745198
15325,865550935.8066981
15374,0.0
16071,0.0
2,4, 1, 4, 0, 9, 0.00,60.00,Wednesday
8,3273512111.7675549
15325,1307360963.0928529
15374,0.0
16071,0.0
2,4, 1, 4, 0,10, 0.00,60.00,Wednesday
8,3152845884.3290197
15325,1282255725.3157697
15374,0.0
16071,0.0
2,4, 1, 4, 0,11, 0.00,60.00,Wednesday
8,2849452501.643751
15325,1174040491.872971
15374,0.0
16071,0.0
2,4, 1, 4, 0,12, 0.00,60.00,Wednesday
8,2319626054.8297746
15325,1065435670.9458375
15374,0.0
16071,0.0
2,4, 1, 4, 0,13, 0.00,60.00,Wednesday
8,2024625864.48567
15325,996258565.8979536
15374,0.0
16071,0.0
2,4, 1, 4, 0,14, 0.00,60.00,Wednesday
8,1810548583.3382927
15325,941983817.5234513
15374,0.0
16071,0.0
2,4, 1, 4, 0,15, 0.00,60.00,Wednesday
8,1601251418.9616073
15325,992006227.8341357
15374,0.0
16071,0.0
2,4, 1, 4, 0,16, 0.00,60.00,Wednesday
8,1812000318.619783
15325,976792803.3239787
15374,0.0
16071,0.0
2,4, 1, 4, 0,17, 0.00,60.00,Wednesday
8,2146478290.0464452
15325,994372344.5302283
15374,0.0
16071,0.0
2,4, 1, 4, 0,18, 0.00,60.00,Wednesday
8,2825532546.511133
15325,932245537.3358989
15374,0.0
16071,0.0
2,4, 1, 4, 0,19, 0.00,60.00,Wednesday
8,3291915750.6602799
15325,903738458.8011307
15374,0.0
16071,0.0
2,4, 1, 4, 0,20, 0.00,60.00,Wednesday
8,3180072813.8857519
15325,904292781.490361
15374,0.0
16071,0.0
2,4, 1, 4, 0,21, 0.00,60.00,Wednesday
8,2892063519.598503
15325,929604268.9821118
15374,0.0
16071,0.0
2,4, 1, 4, 0,22, 0.00,60.00,Wednesday
8,2380633909.5074884
15325,943820447.3700494
15374,0.0
16071,0.0
2,4, 1, 4, 0,23, 0.00,60.00,Wednesday
8,2058890484.360688
15325,922872896.8922204
15374,0.0
16071,0.0
2,4, 1, 4, 0,24, 0.00,60.00,Wednesday
8,1135953456.7960115
15325,540532880.0796123
15374,0.0
16071,0.0
2,5, 1, 5, 0, 1, 0.00,60.00,Thursday
8,378962914.8192643
15325,624855596.007534
15374,0.0
16071,0.0
2,5, 1, 5, 0, 2, 0.00,60.00,Thursday
8,237071547.9520217
15325,693396552.4082744
15374,0.0
16071,0.0
2,5, 1, 5, 0, 3, 0.00,60.00,Thursday
8,132174685.73212032
15325,727704992.2037178
15374,0.0
16071,0.0
2,5, 1, 5, 0, 4, 0.00,60.00,Thursday
8,129010185.18277236
15325,732053545.2571225
15374,0.0
16071,0.0
2,5, 1, 5, 0, 5, 0.00,60.00,Thursday
8,238368616.17551286
15325,782173370.6711289
15374,0.0
16071,0.0
2,5, 1, 5, 0, 6, 0.00,60.00,Thursday
8,1085417261.6001287
15325,850160541.6055344
15374,0.0
16071,0.0
2,5, 1, 5, 0, 7, 0.00,60.00,Thursday
8,3236747577.4063556
15325,754497795.2730414
15374,0.0
16071,0.0
2,5, 1, 5, 0, 8, 0.00,60.00,Thursday
8,3272658511.0745198
15325,828420232.4423303
15374,0.0
16071,0.0
2,5, 1, 5, 0, 9, 0.00,60.00,Thursday
8,3273512111.7675549
15325,1281144849.0398343
15374,0.0
16071,0.0
2,5, 1, 5, 0,10, 0.00,60.00,Thursday
8,3172169086.526067
15325,1269693810.3593777
15374,0.0
16071,0.0
2,5, 1, 5, 0,11, 0.00,60.00,Thursday
8,2849340338.8339216
15325,1090906536.924889
15374,0.0
16071,0.0
2,5, 1, 5, 0,12, 0.00,60.00,Thursday
8,2318649209.7676565
15325,937191711.6491157
15374,0.0
16071,0.0
2,5, 1, 5, 0,13, 0.00,60.00,Thursday
8,2024551036.386568
15325,879186491.8451773
15374,0.0
16071,0.0
2,5, 1, 5, 0,14, 0.00,60.00,Thursday
8,1812050667.11735
15325,820775993.6492177
15374,0.0
16071,0.0
2,5, 1, 5, 0,15, 0.00,60.00,Thursday
8,1598316169.4000514
15325,782174625.2760913
15374,0.0
16071,0.0
2,5, 1, 5, 0,16, 0.00,60.00,Thursday
8,1814178108.4804288
15325,891732626.2310971
15374,0.0
16071,0.0
2,5, 1, 5, 0,17, 0.00,60.00,Thursday
8,2146787344.197725
15325,875950747.3047632
15374,0.0
16071,0.0
2,5, 1, 5, 0,18, 0.00,60.00,Thursday
8,2825612063.5879895
15325,825224837.9080349
15374,0.0
16071,0.0
2,5, 1, 5, 0,19, 0.00,60.00,Thursday
8,3291890586.132321
15325,829249796.499451
15374,0.0
16071,0.0
2,5, 1, 5, 0,20, 0.00,60.00,Thursday
8,3180068193.6594469
15325,834631043.4520346
15374,0.0
16071,0.0
2,5, 1, 5, 0,21, 0.00,60.00,Thursday
8,2892014208.430015
15325,893620420.3179013
15374,0.0
16071,0.0
2,5, 1, 5, 0,22, 0.00,60.00,Thursday
8,2377879240.352991
15325,908513674.1836205
15374,0.0
16071,0.0
2,5, 1, 5, 0,23, 0.00,60.00,Thursday
8,2059435146.2762817
15325,925367609.3433035
15374,0.0
16071,0.0
2,5, 1, 5, 0,24, 0.00,60.00,Thursday
8,1137412011.5536185
15325,503714509.28106239
15374,0.0
16071,0.0
2,6, 1, 6, 0, 1, 0.00,60.00,Friday
8,380042204.3454433
15325,556475115.4681805
15374,0.0
16071,0.0
2,6, 1, 6, 0, 2, 0.00,60.00,Friday
8,236447132.8442683
15325,620512815.5027945
15374,0.0
16071,0.0
2,6, 1, 6, 0, 3, 0.00,60.00,Friday
8,130841865.07024232
15325,667320605.4895451
15374,0.0
16071,0.0
2,6, 1, 6, 0, 4, 0.00,60.00,Friday
8,132171305.90118362
15325,693903355.0756041
15374,0.0
16071,0.0
2,6, 1, 6, 0, 5, 0.00,60.00,Friday
8,235064907.49836198
15325,756036906.8550922
15374,0.0
16071,0.0
2,6, 1, 6, 0, 6, 0.00,60.00,Friday
8,1085403993.9472147
15325,823535891.6213595
15374,0.0
16071,0.0
2,6, 1, 6, 0, 7, 0.00,60.00,Friday
8,3237482430.933906
15325,828873909.4489894
15374,0.0
16071,0.0
2,6, 1, 6, 0, 8, 0.00,60.00,Friday
8,3272658511.0745198
15325,833852008.9427463
15374,0.0
16071,0.0
2,6, 1, 6, 0, 9, 0.00,60.00,Friday
8,3273512111.7675549
15325,1350078758.5222426
15374,0.0
16071,0.0
2,6, 1, 6, 0,10, 0.00,60.00,Friday
8,3165744573.1470777
15325,1167747362.3868833
15374,0.0
16071,0.0
2,6, 1, 6, 0,11, 0.00,60.00,Friday
8,2849307272.251715
15325,933702051.6683462
15374,0.0
16071,0.0
2,6, 1, 6, 0,12, 0.00,60.00,Friday
8,2318777130.7794587
15325,812478454.2548012
15374,0.0
16071,0.0
2,6, 1, 6, 0,13, 0.00,60.00,Friday
8,2024524765.9344302
15325,828996744.3371679
15374,0.0
16071,0.0
2,6, 1, 6, 0,14, 0.00,60.00,Friday
8,1811929975.9895507
15325,811344006.0290504
15374,0.0
16071,0.0
2,6, 1, 6, 0,15, 0.00,60.00,Friday
8,1598260610.2936176
15325,843723051.1951858
15374,0.0
16071,0.0
2,6, 1, 6, 0,16, 0.00,60.00,Friday
8,1814264053.5406605
15325,856934736.0485431
15374,0.0
16071,0.0
2,6, 1, 6, 0,17, 0.00,60.00,Friday
8,2146771233.6788023
15325,878855720.2510563
15374,0.0
16071,0.0
2,6, 1, 6, 0,18, 0.00,60.00,Friday
8,2825570572.998007
15325,802306265.4346771
15374,0.0
16071,0.0
2,6, 1, 6, 0,19, 0.00,60.00,Friday
8,3291891506.6568615
15325,777011678.4272494
15374,0.0
16071,0.0
2,6, 1, 6, 0,20, 0.00,60.00,Friday
8,3180112809.5700285
15325,784670003.239331
15374,0.0
16071,0.0
2,6, 1, 6, 0,21, 0.00,60.00,Friday
8,2891993140.1141369
15325,846507248.3926522
15374,0.0
16071,0.0
2,6, 1, 6, 0,22, 0.00,60.00,Friday
8,2377585784.3858854
15325,860077147.5020923
15374,0.0
16071,0.0
2,6, 1, 6, 0,23, 0.00,60.00,Friday
8,2059490585.985264
15325,890222391.9438388
15374,0.0
16071,0.0
2,6, 1, 6, 0,24, 0.00,60.00,Friday
8,1137414077.9025369
15325,520510930.60272237
15374,0.0
16071,0.0
2,7, 1, 7, 0, 1, 0.00,60.00,Saturday
8,380042679.08914896
15325,606068397.5348858
15374,0.0
16071,0.0
2,7, 1, 7, 0, 2, 0.00,60.00,Saturday
8,238301024.57263876
15325,638146675.6466414
15374,0.0
16071,0.0
2,7, 1, 7, 0, 3, 0.00,60.00,Saturday
8,129015403.76640286
15325,711405404.9411146
15374,0.0
16071,0.0
2,7, 1, 7, 0, 4, 0.00,60.00,Saturday
8,132172549.27403803
15325,742498056.2879913
15374,0.0
16071,0.0
2,7, 1, 7, 0, 5, 0.00,60.00,Saturday
8,235015073.3319943
15325,766451724.4621245
15374,0.0
16071,0.0
2,7, 1, 7, 0, 6, 0.00,60.00,Saturday
8,1085415349.3004633
15325,805187051.5336396
15374,0.0
16071,0.0
2,7, 1, 7, 0, 7, 0.00,60.00,Saturday
8,3237614087.4930016
15325,772009050.8898001
15374,0.0
16071,0.0
2,7, 1, 7, 0, 8, 0.00,60.00,Saturday
8,3270734315.1289908
15325,804123914.479511
15374,0.0
16071,0.0
2,7, 1, 7, 0, 9, 0.00,60.00,Saturday
8,3254826231.1664745
15325,1149242235.3782953
15374,0.0
16071,0.0
2,7, 1, 7, 0,10, 0.00,60.00,Saturday
8,3134160003.7279398
15325,1027633806.599778
15374,0.0
16071,0.0
2,7, 1, 7, 0,11, 0.00,60.00,Saturday
8,2830654225.458372
15325,814558629.4535215
15374,0.0
16071,0.0
2,7, 1, 7, 0,12, 0.00,60.00,Saturday
8,2301065506.674374
15325,675675351.9636241
15374,0.0
16071,0.0
2,7, 1, 7, 0,13, 0.00,60.00,Saturday
8,2007485210.4821144
15325,584728666.3483442
15374,0.0
16071,0.0
2,7, 1, 7, 0,14, 0.00,60.00,Saturday
8,1791898265.092279
15325,557843381.8377652
15374,0.0
16071,0.0
2,7, 1, 7, 0,15, 0.00,60.00,Saturday
8,1582825240.0107635
15325,546744501.1872752
15374,0.0
16071,0.0
2,7, 1, 7, 0,16, 0.00,60.00,Saturday
8,1792890542.7696734
15325,527563540.92731097
15374,0.0
16071,0.0
2,7, 1, 7, 0,17, 0.00,60.00,Saturday
8,2127800335.8156267
15325,627647469.1279073
15374,0.0
16071,0.0
2,7, 1, 7, 0,18, 0.00,60.00,Saturday
8,2823666700.544943
15325,645950151.1113721
15374,0.0
16071,0.0
2,7, 1, 7, 0,19, 0.00,60.00,Saturday
8,3291859039.076092
15325,674195809.4522017
15374,0.0
16071,0.0
2,7, 1, 7, 0,20, 0.00,60.00,Saturday
8,3176843192.027109
15325,698293513.0979471
15374,0.0
16071,0.0
2,7, 1, 7, 0,21, 0.00,60.00,Saturday
8,2892044728.526471
15325,775021368.2625688
15374,0.0
16071,0.0
2,7, 1, 7, 0,22, 0.00,60.00,Saturday
8,2378066503.9108445
15325,835885549.0066384
15374,0.0
16071,0.0
2,7, 1, 7, 0,23, 0.00,60.00,Saturday
8,2059398863.3990508
15325,920955382.230127
15374,0.0
16071,0.0
2,7, 1, 7, 0,24, 0.00,60.00,Saturday
8,1137396623.4152916
15325,563368406.2912529
15374,0.0
16071,0.0
2,8, 1, 8, 0, 1, 0.00,60.00,Sunday
8,380036244.71904799
15325,571769585.3652378
15374,0.0
16071,0.0
2,8, 1, 8, 0, 2, 0.00,60.00,Sunday
8,235062016.4411798
15325,633658329.8396367
15374,0.0
16071,0.0
2,8, 1, 8, 0, 3, 0.00,60.00,Sunday
8,132182235.57146658
15325,647735899.5534124
15374,0.0
16071,0.0
2,8, 1, 8, 0, 4, 0.00,60.00,Sunday
8,132170976.06355675
15325,675524077.7557651
15374,0.0
16071,0.0
2,8, 1, 8, 0, 5, 0.00,60.00,Sunday
8,235009209.87829674
15325,704212781.7794257
15374,0.0
16071,0.0
2,8, 1, 8, 0, 6, 0.00,60.00,Sunday
8,1085404946.8234003
15325,740004327.0588834
15374,0.0
16071,0.0
2,8, 1, 8, 0, 7, 0.00,60.00,Sunday
8,3237509149.864464
15325,680628957.8493772
15374,0.0
16071,0.0
2,8, 1, 8, 0, 8, 0.00,60.00,Sunday
8,3270734315.1289908
15325,757242019.6981067
15374,0.0
16071,0.0
2,8, 1, 8, 0, 9, 0.00,60.00,Sunday
8,3254826231.1664745
15325,1154423921.9945348
15374,0.0
16071,0.0
2,8, 1, 8, 0,10, 0.00,60.00,Sunday
8,3134160003.7279398
15325,1341017365.4110594
15374,0.0
16071,0.0
2,8, 1, 8, 0,11, 0.00,60.00,Sunday
8,2830766621.0426709
15325,1317011342.1790453
15374,0.0
16071,0.0
2,8, 1, 8, 0,12, 0.00,60.00,Sunday
8,2300638040.771817
15325,1259030231.8398469
15374,0.0
16071,0.0
2,8, 1, 8, 0,13, 0.00,60.00,Sunday
8,2007742960.6863957
15325,1222068901.8332573
15374,0.0
16071,0.0
2,8, 1, 8, 0,14, 0.00,60.00,Sunday
8,1791992767.2152732
15325,1222184367.3829485
15374,0.0
16071,0.0
2,8, 1, 8, 0,15, 0.00,60.00,Sunday
8,1582959582.2490657
15325,1218542809.572201
15374,0.0
16071,0.0
2,8, 1, 8, 0,16, 0.00,60.00,Sunday
8,1792848551.6735054
15325,1218464860.6626273
15374,0.0
16071,0.0
2,8, 1, 8, 0,17, 0.00,60.00,Sunday
8,2127757527.122703
15325,1136670398.006804
15374,0.0
16071,0.0
2,8, 1, 8, 0,18, 0.00,60.00,Sunday
8,2823573800.5347206
15325,1072225282.2603889
15374,0.0
16071,0.0
2,8, 1, 8, 0,19, 0.00,60.00,Sunday
8,3291710549.863775
15325,1036749873.217678
15374,0.0
16071,0.0
2,8, 1, 8, 0,20, 0.00,60.00,Sunday
8,3166851542.1480505
15325,1008488071.0330988
15374,0.0
16071,0.0
2,8, 1, 8, 0,21, 0.00,60.00,Sunday
8,2892011567.339666
15325,1000263489.1600454
15374,0.0
16071,0.0
2,8, 1, 8, 0,22, 0.00,60.00,Sunday
8,2380731039.3143746
15325,1004740626.7860468
15374,0.0
16071,0.0
2,8, 1, 8, 0,23, 0.00,60.00,Sunday
8,2059200602.6627389
15325,976881386.0092391
15374,0.0
16071,0.0
2,8, 1, 8, 0,24, 0.00,60.00,Sunday
8,1135030833.7505472
15325,582686002.0723693
15374,0.0
16071,0.0
2,9, 1, 9, 0, 1, 0.00,60.00,Monday
8,378848532.33424207
15325,597461964.6048834
15374,0.0
16071,0.0
2,9, 1, 9, 0, 2, 0.00,60.00,Monday
8,238255078.40894649
15325,682052029.5488713
15374,0.0
16071,0.0
2,9, 1, 9, 0, 3, 0.00,60.00,Monday
8,132172744.19614566
15325,788311722.8600773
15374,0.0
16071,0.0
2,9, 1, 9, 0, 4, 0.00,60.00,Monday
8,129009564.06683852
15325,789355574.2037068
15374,0.0
16071,0.0
2,9, 1, 9, 0, 5, 0.00,60.00,Monday
8,238366141.24246539
15325,783018571.9368063
15374,0.0
16071,0.0
2,9, 1, 9, 0, 6, 0.00,60.00,Monday
8,1085417590.8998702
15325,880879858.4903147
15374,0.0
16071,0.0
2,9, 1, 9, 0, 7, 0.00,60.00,Monday
8,3236698423.106035
15325,831029302.8621442
15374,0.0
16071,0.0
2,9, 1, 9, 0, 8, 0.00,60.00,Monday
8,3272658511.0745198
15325,884529103.1360991
15374,0.0
16071,0.0
2,9, 1, 9, 0, 9, 0.00,60.00,Monday
8,3273512111.7675549
15325,1345804264.8186513
15374,0.0
16071,0.0
2,9, 1, 9, 0,10, 0.00,60.00,Monday
8,3172169086.526067
15325,1344454958.2534846
15374,0.0
16071,0.0
2,9, 1, 9, 0,11, 0.00,60.00,Monday
8,2849521210.092877
15325,1279581833.070134
15374,0.0
16071,0.0
2,9, 1, 9, 0,12, 0.00,60.00,Monday
8,2318846505.5436727
15325,1206292164.7043446
15374,0.0
16071,0.0
2,9, 1, 9, 0,13, 0.00,60.00,Monday
8,2024528807.0205458
15325,1154221555.0488425
15374,0.0
16071,0.0
2,9, 1, 9, 0,14, 0.00,60.00,Monday
8,1811952800.3815003
15325,1131183109.8323529
15374,0.0
16071,0.0
2,9, 1, 9, 0,15, 0.00,60.00,Monday
8,1598243425.1982926
15325,1095481142.367386
15374,0.0
16071,0.0
2,9, 1, 9, 0,16, 0.00,60.00,Monday
8,1814486892.9758652
15325,1018127342.7368813
15374,0.0
16071,0.0
2,9, 1, 9, 0,17, 0.00,60.00,Monday
8,2146831735.1585017
15325,901653800.1377668
15374,0.0
16071,0.0
2,9, 1, 9, 0,18, 0.00,60.00,Monday
8,2825566186.0995585
15325,851215838.7386072
15374,0.0
16071,0.0
2,9, 1, 9, 0,19, 0.00,60.00,Monday
8,3291879087.4941265
15325,756234088.4146438
15374,0.0
16071,0.0
2,9, 1, 9, 0,20, 0.00,60.00,Monday
8,3180112711.536765
15325,735552338.9133651
15374,0.0
16071,0.0
2,9, 1, 9, 0,21, 0.00,60.00,Monday
8,2892104934.472456
15325,767224885.0509422
15374,0.0
16071,0.0
2,9, 1, 9, 0,22, 0.00,60.00,Monday
8,2376679080.0338456
15325,767517444.3499669
15374,0.0
16071,0.0
2,9, 1, 9, 0,23, 0.00,60.00,Monday
8,2059483229.5720759
15325,787667919.7177636
15374,0.0
16071,0.0
2,9, 1, 9, 0,24, 0.00,60.00,Monday
8,1137408825.8253606
15325,425612088.7650805
15374,0.0
16071,0.0
2,10, 1,10, 0, 1, 0.00,60.00,Tuesday
8,380046350.68431767
15325,472325861.31006279
15374,0.0
16071,0.0
2,10, 1,10, 0, 2, 0.00,60.00,Tuesday
8,238320026.2715381
15325,556091121.3025067
15374,0.0
16071,0.0
2,10, 1,10, 0, 3, 0.00,60.00,Tuesday
8,129020249.5526598
15325,609676358.3908947
15374,0.0
16071,0.0
2,10, 1,10, 0, 4, 0.00,60.00,Tuesday
8,132177740.93563605
15325,612999460.42223
15374,0.0
16071,0.0
2,10, 1,10, 0, 5, 0.00,60.00,Tuesday
8,237691049.86890979
15325,654850435.5865547
15374,0.0
16071,0.0
2,10, 1,10, 0, 6, 0.00,60.00,Tuesday
8,1084872401.0583196
15325,691920353.1225199
15374,0.0
16071,0.0
2,10, 1,10, 0, 7, 0.00,60.00,Tuesday
8,3238050655.6289417
15325,635063347.0002403
15374,0.0
16071,0.0
2,10, 1,10, 0, 8, 0.00,60.00,Tuesday
8,3272658511.0745198
15325,685257396.1219895
15374,0.0
16071,0.0
2,10, 1,10, 0, 9, 0.00,60.00,Tuesday
8,3273512111.7675549
15325,1125675375.4417515
15374,0.0
16071,0.0
2,10, 1,10, 0,10, 0.00,60.00,Tuesday
8,3172169086.526067
15325,1187303757.2137783
15374,0.0
16071,0.0
2,10, 1,10, 0,11, 0.00,60.00,Tuesday
8,2849386043.5732848
15325,1042164330.5209695
15374,0.0
16071,0.0
2,10, 1,10, 0,12, 0.00,60.00,Tuesday
8,2318669360.0647027
15325,992072093.3558303
15374,0.0
16071,0.0
2,10, 1,10, 0,13, 0.00,60.00,Tuesday
8,2024567894.893518
15325,900981601.3414292
15374,0.0
16071,0.0
2,10, 1,10, 0,14, 0.00,60.00,Tuesday
8,1812125961.8712283
15325,879909433.5404617
15374,0.0
16071,0.0
2,10, 1,10, 0,15, 0.00,60.00,Tuesday
8,1598056775.4902724
15325,873374584.4707162
15374,0.0
16071,0.0
2,10, 1,10, 0,16, 0.00,60.00,Tuesday
8,1814429226.5922018
15325,882403482.5766132
15374,0.0
16071,0.0
2,10, 1,10, 0,17, 0.00,60.00,Tuesday
8,2146797281.9564489
15325,905540987.9045065
15374,0.0
16071,0.0
2,10, 1,10, 0,18, 0.00,60.00,Tuesday
8,2825562801.0817706
15325,898096424.1981368
15374,0.0
16071,0.0
2,10, 1,10, 0,19, 0.00,60.00,Tuesday
8,3291889363.590047
15325,844715103.4891009
15374,0.0
16071,0.0
2,10, 1,10, 0,20, 0.00,60.00,Tuesday
8,3180064732.6664416
15325,846097664.3444456
15374,0.0
16071,0.0
2,10, 1,10, 0,21, 0.00,60.00,Tuesday
8,2891961321.9547717
15325,865885967.6686038
15374,0.0
16071,0.0
2,10, 1,10, 0,22, 0.00,60.00,Tuesday
8,2377171024.9319899
15325,897194627.9328954
15374,0.0
16071,0.0
2,10, 1,10, 0,23, 0.00,60.00,Tuesday
8,2059568025.7863272
15325,862399704.3072968
15374,0.0
16071,0.0
2,10, 1,10, 0,24, 0.00,60.00,Tuesday
8,1137416418.2886997
15325,499287036.4538034
15374,0.0
16071,0.0
2,11, 1,11, 0, 1, 0.00,60.00,Wednesday
8,380045436.14104738
15325,573942625.6846051
15374,0.0
16071,0.0
2,11, 1,11, 0, 2, 0.00,60.00,Wednesday
8,238347286.19616405
15325,690582504.1769835
15374,0.0
16071,0.0
2,11, 1,11, 0, 3, 0.00,60.00,Wednesday
8,129016748.92534746
15325,729387788.7273345
15374,0.0
16071,0.0
2,11, 1,11, 0, 4, 0.00,60.00,Wednesday
8,132170204.20117235
15325,786140963.5205247
15374,0.0
16071,0.0
2,11, 1,11, 0, 5, 0.00,60.00,Wednesday
8,235020681.37038947
15325,772550909.5578022
15374,0.0
16071,0.0
2,11, 1,11, 0, 6, 0.00,60.00,Wednesday
8,1085414448.1586743
15325,838216675.4163987
15374,0.0
16071,0.0
2,11, 1,11, 0, 7, 0.00,60.00,Wednesday
8,3237724673.7773315
15325,739844723.3399479
15374,0.0
16071,0.0
2,11, 1,11, 0, 8, 0.00,60.00,Wednesday
8,3272658511.0745198
15325,796100741.7448576
15374,0.0
16071,0.0
2,11, 1,11, 0, 9, 0.00,60.00,Wednesday
8,3273512111.7675549
15325,1249917723.5891722
15374,0.0
16071,0.0
2,11, 1,11, 0,10, 0.00,60.00,Wednesday
8,3152845884.3290197
15325,1217843122.7902847
15374,0.0
16071,0.0
2,11, 1,11, 0,11, 0.00,60.00,Wednesday
8,2849340106.0594527
15325,914986712.1069378
15374,0.0
16071,0.0
2,11, 1,11, 0,12, 0.00,60.00,Wednesday
8,2319617472.8722798
15325,809954882.4671759
15374,0.0
16071,0.0
2,11, 1,11, 0,13, 0.00,60.00,Wednesday
8,2024221910.356124
15325,719568980.7772927
15374,1183036.4741631244
16071,0.0
2,11, 1,11, 0,14, 0.00,60.00,Wednesday
8,1810911192.9781092
15325,721718840.8224268
15374,0.0
16071,0.0
2,11, 1,11, 0,15, 0.00,60.00,Wednesday
8,1601540039.1404577
15325,717448034.3453523
15374,0.0
16071,0.0
2,11, 1,11, 0,16, 0.00,60.00,Wednesday
8,1811460484.51086
15325,705870118.9302348
15374,0.0
16071,0.0
2,11, 1,11, 0,17, 0.00,60.00,Wednesday
8,2146395188.8089894
15325,695626407.3267361
15374,0.0
16071,0.0
2,11, 1,11, 0,18, 0.00,60.00,Wednesday
8,2825559927.2584578
15325,699374679.480514
15374,0.0
16071,0.0
2,11, 1,11, 0,19, 0.00,60.00,Wednesday
8,3291922668.397118
15325,713367375.0725536
15374,0.0
16071,0.0
2,11, 1,11, 0,20, 0.00,60.00,Wednesday
8,3180068067.493503
15325,728846380.3871265
15374,0.0
16071,0.0
2,11, 1,11, 0,21, 0.00,60.00,Wednesday
8,2891924669.2345745
15325,764225080.5877665
15374,0.0
16071,0.0
2,11, 1,11, 0,22, 0.00,60.00,Wednesday
8,2380795054.187538
15325,816343159.811709
15374,0.0
16071,0.0
2,11, 1,11, 0,23, 0.00,60.00,Wednesday
8,2059305049.9410263
15325,822842644.7541617
15374,0.0
16071,0.0
2,11, 1,11, 0,24, 0.00,60.00,Wednesday
8,1135024940.289233
15325,446455816.53477099
15374,0.0
16071,0.0
2,12, 1,12, 0, 1, 0.00,60.00,Thursday
8,378919983.3938764
15325,554216946.2442836
15374,0.0
16071,0.0
2,12, 1,12, 0, 2, 0.00,60.00,Thursday
8,237846670.19251783
15325,643616217.656873
15374,0.0
16071,0.0
2,12, 1,12, 0, 3, 0.00,60.00,Thursday
8,132174224.93970378
15325,660135978.6188476
15374,0.0
16071,0.0
2,12, 1,12, 0, 4, 0.00,60.00,Thursday
8,129006629.5231249
15325,691441363.3048303
15374,0.0
16071,0.0
2,12, 1,12, 0, 5, 0.00,60.00,Thursday
8,238358802.48412044
15325,743635152.0765226
15374,0.0
16071,0.0
2,12, 1,12, 0, 6, 0.00,60.00,Thursday
8,1085417525.7914682
15325,830261932.9811981
15374,0.0
16071,0.0
2,12, 1,12, 0, 7, 0.00,60.00,Thursday
8,3236724925.605478
15325,699979243.10508
15374,0.0
16071,0.0
2,12, 1,12, 0, 8, 0.00,60.00,Thursday
8,3272658511.0745198
15325,781079145.2626834
15374,0.0
16071,0.0
2,12, 1,12, 0, 9, 0.00,60.00,Thursday
8,3273512111.7675549
15325,1240825949.2021847
15374,0.0
16071,0.0
2,12, 1,12, 0,10, 0.00,60.00,Thursday
8,3172169086.526067
15325,1232642386.081456
15374,0.0
16071,0.0
2,12, 1,12, 0,11, 0.00,60.00,Thursday
8,2849386043.5732848
15325,1112468128.8305202
15374,0.0
16071,0.0
2,12, 1,12, 0,12, 0.00,60.00,Thursday
8,2318808227.637864
15325,1011845750.5236473
15374,0.0
16071,0.0
2,12, 1,12, 0,13, 0.00,60.00,Thursday
8,2024882721.9339026
15325,903804607.8205117
15374,0.0
16071,0.0
2,12, 1,12, 0,14, 0.00,60.00,Thursday
8,1811035517.553259
15325,834249032.3235451
15374,0.0
16071,0.0
2,12, 1,12, 0,15, 0.00,60.00,Thursday
8,1599095927.9832638
15325,829071820.045196
15374,0.0
16071,0.0
2,12, 1,12, 0,16, 0.00,60.00,Thursday
8,1813586427.6850007
15325,867829422.1040613
15374,0.0
16071,0.0
2,12, 1,12, 0,17, 0.00,60.00,Thursday
8,2146694267.6197963
15325,830332249.7971072
15374,0.0
16071,0.0
2,12, 1,12, 0,18, 0.00,60.00,Thursday
8,2825579872.3400828
15325,832298120.0072136
15374,0.0
16071,0.0
2,12, 1,12, 0,19, 0.00,60.00,Thursday
8,3291903545.3290865
15325,858126733.0958005
15374,0.0
16071,0.0
2,12, 1,12, 0,20, 0.00,60.00,Thursday
8,3180124811.2382037
15325,893517050.3620112
15374,0.0
16071,0.0
2,12, 1,12, 0,21, 0.00,60.00,Thursday
8,2892037266.445007
15325,1000539949.438219
15374,0.0
16071,0.0
2,12, 1,12, 0,22, 0.00,60.00,Thursday
8,2378209346.9625675
15325,1021263912.9139259
15374,0.0
16071,0.0
2,12, 1,12, 0,23, 0.00,60.00,Thursday
8,2059371514.581313
15325,981432937.602801