Program Version,EnergyPlus, Version 9.3.0-baff08990c, YMD=2020.05.22 11:48
1,5,Environment Title[],Latitude[deg],Longitude[deg],Time Zone[],Elevation[m]
2,8,Day of Simulation[],Month[],Day of Month[],DST Indicator[1=yes 0=no],Hour[],StartMinute[],EndMinute[],DayType
3,5,Cumulative Day of Simulation[],Month[],Day of Month[],DST Indicator[1=yes 0=no],DayType  ! When Daily Report Variables Requested
4,2,Cumulative Days of Simulation[],Month[]  ! When Monthly Report Variables Requested
5,1,Cumulative Days of Simulation[] ! When Run Period Report Variables Requested
6,1,Calendar Year of Simulation[] ! When Annual Report Variables Requested
8,1,Electricity:Facility [J] !TimeStep
15513,1,Gas:Facility [J] !TimeStep
15038,1,DistrictCooling:Facility [J] !TimeStep
14989,1,DistrictHeating:Facility [J] !TimeStep
End of Data Dictionary
1,RUN PERIOD 1,  47.45,-122.30,  -8.00, 122.00
2,1, 1, 1, 0, 1, 0.00,60.00,Sunday
8,497066739.6954599
14989,12992425.91865395
15038,0.0
15513,0.0
2,1, 1, 1, 0, 2, 0.00,60.00,Sunday
8,421401688.6803738
14989,14793507.892031767
15038,0.0
15513,0.0
2,1, 1, 1, 0, 3, 0.00,60.00,Sunday
8,410316450.6542987
14989,16585356.562611118
15038,0.0
15513,0.0
2,1, 1, 1, 0, 4, 0.00,60.00,Sunday
8,417949434.3010083
14989,16820062.783116756
15038,0.0
15513,0.0
2,1, 1, 1, 0, 5, 0.00,60.00,Sunday
8,556794867.0618823
14989,18080468.039493924
15038,0.0
15513,0.0
2,1, 1, 1, 0, 6, 0.00,60.00,Sunday
8,1482106174.0987294
14989,31136620.16751372
15038,0.0
15513,0.0
2,1, 1, 1, 0, 7, 0.00,60.00,Sunday
8,3611511905.013987
14989,30548615.838303925
15038,0.0
15513,0.0
2,1, 1, 1, 0, 8, 0.00,60.00,Sunday
8,3628006418.7540566
14989,27861162.342103848
15038,0.0
15513,0.0
2,1, 1, 1, 0, 9, 0.00,60.00,Sunday
8,3936609622.0351746
14989,21366728.24360635
15038,0.0
15513,0.0
2,1, 1, 1, 0,10, 0.00,60.00,Sunday
8,3667968796.6365749
14989,11849081.015629184
15038,0.0
15513,0.0
2,1, 1, 1, 0,11, 0.00,60.00,Sunday
8,3215288326.0744059
14989,10907785.375834663
15038,0.0
15513,0.0
2,1, 1, 1, 0,12, 0.00,60.00,Sunday
8,2603497391.1493136
14989,10394161.995624545
15038,0.0
15513,0.0
2,1, 1, 1, 0,13, 0.00,60.00,Sunday
8,2262750275.620507
14989,9909249.325261599
15038,0.0
15513,0.0
2,1, 1, 1, 0,14, 0.00,60.00,Sunday
8,1981214918.2733985
14989,9591590.08985672
15038,0.0
15513,0.0
2,1, 1, 1, 0,15, 0.00,60.00,Sunday
8,1792612791.726814
14989,9345636.037641608
15038,0.0
15513,0.0
2,1, 1, 1, 0,16, 0.00,60.00,Sunday
8,1987921888.5782588
14989,9440545.668946136
15038,0.0
15513,0.0
2,1, 1, 1, 0,17, 0.00,60.00,Sunday
8,2392214815.8020746
14989,10070324.84337348
15038,0.0
15513,0.0
2,1, 1, 1, 0,18, 0.00,60.00,Sunday
8,3085170456.8224885
14989,10314682.471285236
15038,0.0
15513,0.0
2,1, 1, 1, 0,19, 0.00,60.00,Sunday
8,3535483558.777253
14989,10931195.615313527
15038,0.0
15513,0.0
2,1, 1, 1, 0,20, 0.00,60.00,Sunday
8,3460314323.9861638
14989,12513094.570611636
15038,0.0
15513,0.0
2,1, 1, 1, 0,21, 0.00,60.00,Sunday
8,3236670986.6976597
14989,16261574.022176343
15038,0.0
15513,0.0
2,1, 1, 1, 0,22, 0.00,60.00,Sunday
8,2741597327.4802806
14989,18560823.667629675
15038,0.0
15513,0.0
2,1, 1, 1, 0,23, 0.00,60.00,Sunday
8,2459864655.7155516
14989,12037043.452855472
15038,0.0
15513,0.0
2,1, 1, 1, 0,24, 0.00,60.00,Sunday
8,1274400678.4386552
14989,13347567.73245088
15038,0.0
15513,0.0
2,2, 1, 2, 0, 1, 0.00,60.00,Monday
8,525170604.93381258
14989,13894447.11982289
15038,0.0
15513,0.0
2,2, 1, 2, 0, 2, 0.00,60.00,Monday
8,473427503.48359128
14989,16237688.627698603
15038,0.0
15513,0.0
2,2, 1, 2, 0, 3, 0.00,60.00,Monday
8,425899044.90210518
14989,18125622.511142419
15038,0.0
15513,0.0
2,2, 1, 2, 0, 4, 0.00,60.00,Monday
8,408627645.2819713
14989,17800095.63341319
15038,0.0
15513,0.0
2,2, 1, 2, 0, 5, 0.00,60.00,Monday
8,566837072.6329414
14989,19611607.6972077
15038,0.0
15513,0.0
2,2, 1, 2, 0, 6, 0.00,60.00,Monday
8,1615598261.0474997
14989,34567044.32369302
15038,0.0
15513,0.0
2,2, 1, 2, 0, 7, 0.00,60.00,Monday
8,3571608007.8975875
14989,31026281.044395068
15038,0.0
15513,0.0
2,2, 1, 2, 0, 8, 0.00,60.00,Monday
8,3751502330.149297
14989,40874144.30185974
15038,0.0
15513,0.0
2,2, 1, 2, 0, 9, 0.00,60.00,Monday
8,4018863285.7469637
14989,34262265.342643659
15038,0.0
15513,0.0
2,2, 1, 2, 0,10, 0.00,60.00,Monday
8,3648371002.871311
14989,15636539.086278312
15038,0.0
15513,0.0
2,2, 1, 2, 0,11, 0.00,60.00,Monday
8,3258720429.709748
14989,11439390.527069699
15038,0.0
15513,0.0
2,2, 1, 2, 0,12, 0.00,60.00,Monday
8,2652591703.821308
14989,10926697.586505345
15038,2843993.851390545
15513,0.0
2,2, 1, 2, 0,13, 0.00,60.00,Monday
8,2311829602.283746
14989,10455620.641320739
15038,8544369.757022629
15513,0.0
2,2, 1, 2, 0,14, 0.00,60.00,Monday
8,2074978817.030855
14989,10147589.043514062
15038,11397756.762171608
15513,0.0
2,2, 1, 2, 0,15, 0.00,60.00,Monday
8,1812208542.941952
14989,9721666.495548828
15038,14126276.583778164
15513,0.0
2,2, 1, 2, 0,16, 0.00,60.00,Monday
8,1996869317.2755693
14989,9685002.684219685
15038,12847091.957938953
15513,0.0
2,2, 1, 2, 0,17, 0.00,60.00,Monday
8,2393021748.6622278
14989,10356168.934400375
15038,0.0
15513,0.0
2,2, 1, 2, 0,18, 0.00,60.00,Monday
8,3083166141.7795727
14989,10546775.76656949
15038,0.0
15513,0.0
2,2, 1, 2, 0,19, 0.00,60.00,Monday
8,3552093263.108797
14989,10739100.590099127
15038,0.0
15513,0.0
2,2, 1, 2, 0,20, 0.00,60.00,Monday
8,3507429691.5377819
14989,11218360.584776489
15038,0.0
15513,0.0
2,2, 1, 2, 0,21, 0.00,60.00,Monday
8,3271892447.582474
14989,15037902.924111678
15038,0.0
15513,0.0
2,2, 1, 2, 0,22, 0.00,60.00,Monday
8,2763270386.0431315
14989,17662056.818870997
15038,0.0
15513,0.0
2,2, 1, 2, 0,23, 0.00,60.00,Monday
8,2435846352.66171
14989,11539600.192135267
15038,0.0
15513,0.0
2,2, 1, 2, 0,24, 0.00,60.00,Monday
8,1268800357.1729696
14989,13399070.171851375
15038,0.0
15513,0.0
2,3, 1, 3, 0, 1, 0.00,60.00,Tuesday
8,549270310.8674229
14989,14664743.937781148
15038,0.0
15513,0.0
2,3, 1, 3, 0, 2, 0.00,60.00,Tuesday
8,452317970.35283789
14989,15760085.98296016
15038,0.0
15513,0.0
2,3, 1, 3, 0, 3, 0.00,60.00,Tuesday
8,395169024.9938411
14989,16853725.136428499
15038,0.0
15513,0.0
2,3, 1, 3, 0, 4, 0.00,60.00,Tuesday
8,360036344.2251636
14989,16435839.44645348
15038,0.0
15513,0.0
2,3, 1, 3, 0, 5, 0.00,60.00,Tuesday
8,494599913.8597634
14989,17057805.201465817
15038,0.0
15513,0.0
2,3, 1, 3, 0, 6, 0.00,60.00,Tuesday
8,1380533541.4044364
14989,29535293.590758183
15038,0.0
15513,0.0
2,3, 1, 3, 0, 7, 0.00,60.00,Tuesday
8,3446068162.0526287
14989,26329098.655546108
15038,0.0
15513,0.0
2,3, 1, 3, 0, 8, 0.00,60.00,Tuesday
8,3519848142.997047
14989,34104339.27770328
15038,0.0
15513,0.0
2,3, 1, 3, 0, 9, 0.00,60.00,Tuesday
8,3758918945.3268768
14989,32059116.480623194
15038,0.0
15513,0.0
2,3, 1, 3, 0,10, 0.00,60.00,Tuesday
8,3656904875.2177
14989,24214156.880972357
15038,0.0
15513,0.0
2,3, 1, 3, 0,11, 0.00,60.00,Tuesday
8,3292503622.731777
14989,19269841.909485226
15038,0.0
15513,0.0
2,3, 1, 3, 0,12, 0.00,60.00,Tuesday
8,2691143804.5513908
14989,15653604.994943932
15038,0.0
15513,0.0
2,3, 1, 3, 0,13, 0.00,60.00,Tuesday
8,2356443374.077288
14989,14591195.566365837
15038,0.0
15513,0.0
2,3, 1, 3, 0,14, 0.00,60.00,Tuesday
8,2059874567.6893726
14989,11086457.41209866
15038,0.0
15513,0.0
2,3, 1, 3, 0,15, 0.00,60.00,Tuesday
8,1925417626.3934539
14989,13174700.39759951
15038,0.0
15513,0.0
2,3, 1, 3, 0,16, 0.00,60.00,Tuesday
8,2139685643.927324
14989,14005016.712360289
15038,0.0
15513,0.0
2,3, 1, 3, 0,17, 0.00,60.00,Tuesday
8,2454703819.8295829
14989,15356357.281880703
15038,0.0
15513,0.0
2,3, 1, 3, 0,18, 0.00,60.00,Tuesday
8,3089157453.6108505
14989,11876554.018872442
15038,0.0
15513,0.0
2,3, 1, 3, 0,19, 0.00,60.00,Tuesday
8,3523609854.566332
14989,10879261.031665912
15038,0.0
15513,0.0
2,3, 1, 3, 0,20, 0.00,60.00,Tuesday
8,3414243174.920991
14989,11844960.598756466
15038,0.0
15513,0.0
2,3, 1, 3, 0,21, 0.00,60.00,Tuesday
8,3144115462.392482
14989,13499654.564484429
15038,0.0
15513,0.0
2,3, 1, 3, 0,22, 0.00,60.00,Tuesday
8,2631138355.8917648
14989,14634814.885568867
15038,0.0
15513,0.0
2,3, 1, 3, 0,23, 0.00,60.00,Tuesday
8,2319789778.1842567
14989,8492047.708325062
15038,0.0
15513,0.0
2,3, 1, 3, 0,24, 0.00,60.00,Tuesday
8,1223232105.9408906
14989,9742152.508305522
15038,0.0
15513,0.0
2,4, 1, 4, 0, 1, 0.00,60.00,Wednesday
8,481768210.7605744
14989,10720223.037919384
15038,0.0
15513,0.0
2,4, 1, 4, 0, 2, 0.00,60.00,Wednesday
8,369362188.8838135
14989,11269771.203931744
15038,0.0
15513,0.0
2,4, 1, 4, 0, 3, 0.00,60.00,Wednesday
8,283577527.011873
14989,11698132.52667975
15038,0.0
15513,0.0
2,4, 1, 4, 0, 4, 0.00,60.00,Wednesday
8,292349305.5254471
14989,11884689.849955718
15038,0.0
15513,0.0
2,4, 1, 4, 0, 5, 0.00,60.00,Wednesday
8,425552442.14927759
14989,13106389.052248735
15038,0.0
15513,0.0
2,4, 1, 4, 0, 6, 0.00,60.00,Wednesday
8,1283648417.8747323
14989,24361270.98421719
15038,0.0
15513,0.0
2,4, 1, 4, 0, 7, 0.00,60.00,Wednesday
8,3396068585.489118
14989,22114107.17932035
15038,0.0
15513,0.0
2,4, 1, 4, 0, 8, 0.00,60.00,Wednesday
8,3445624651.9600479
14989,30346298.115180717
15038,0.0
15513,0.0
2,4, 1, 4, 0, 9, 0.00,60.00,Wednesday
8,3733259199.9435088
14989,30355050.731939109
15038,0.0
15513,0.0
2,4, 1, 4, 0,10, 0.00,60.00,Wednesday
8,3620546732.966758
14989,21705775.501897515
15038,0.0
15513,0.0
2,4, 1, 4, 0,11, 0.00,60.00,Wednesday
8,3264045611.8801996
14989,17732689.34387218
15038,0.0
15513,0.0
2,4, 1, 4, 0,12, 0.00,60.00,Wednesday
8,2677507849.757256
14989,14767321.509852477
15038,0.0
15513,0.0
2,4, 1, 4, 0,13, 0.00,60.00,Wednesday
8,2298677940.3134477
14989,14176673.698604843
15038,0.0
15513,0.0
2,4, 1, 4, 0,14, 0.00,60.00,Wednesday
8,2063098225.7479423
14989,12138109.402717339
15038,0.0
15513,0.0
2,4, 1, 4, 0,15, 0.00,60.00,Wednesday
8,1944231551.4133638
14989,13736073.90526389
15038,0.0
15513,0.0
2,4, 1, 4, 0,16, 0.00,60.00,Wednesday
8,2080927434.33845
14989,14061775.896173265
15038,0.0
15513,0.0
2,4, 1, 4, 0,17, 0.00,60.00,Wednesday
8,2464038135.125715
14989,15814386.398725287
15038,0.0
15513,0.0
2,4, 1, 4, 0,18, 0.00,60.00,Wednesday
8,3098721847.154179
14989,11785707.787065678
15038,0.0
15513,0.0
2,4, 1, 4, 0,19, 0.00,60.00,Wednesday
8,3524302138.139376
14989,10740743.623604866
15038,0.0
15513,0.0
2,4, 1, 4, 0,20, 0.00,60.00,Wednesday
8,3413474659.5153849
14989,11933486.899290679
15038,0.0
15513,0.0
2,4, 1, 4, 0,21, 0.00,60.00,Wednesday
8,3142444591.5983726
14989,13690330.630648148
15038,0.0
15513,0.0
2,4, 1, 4, 0,22, 0.00,60.00,Wednesday
8,2632557994.151801
14989,14864717.498274275
15038,0.0
15513,0.0
2,4, 1, 4, 0,23, 0.00,60.00,Wednesday
8,2316483377.7330939
14989,8366625.481859146
15038,0.0
15513,0.0
2,4, 1, 4, 0,24, 0.00,60.00,Wednesday
8,1222794641.264809
14989,9714161.370483928
15038,0.0
15513,0.0
2,5, 1, 5, 0, 1, 0.00,60.00,Thursday
8,488224559.8577305
14989,11172348.740895566
15038,0.0
15513,0.0
2,5, 1, 5, 0, 2, 0.00,60.00,Thursday
8,376507663.83248487
14989,11685417.968208723
15038,0.0
15513,0.0
2,5, 1, 5, 0, 3, 0.00,60.00,Thursday
8,288561514.74947938
14989,12137123.71325631
15038,0.0
15513,0.0
2,5, 1, 5, 0, 4, 0.00,60.00,Thursday
8,292297345.1632618
14989,12363039.758756575
15038,0.0
15513,0.0
2,5, 1, 5, 0, 5, 0.00,60.00,Thursday
8,423544981.4378706
14989,13494804.567045385
15038,0.0
15513,0.0
2,5, 1, 5, 0, 6, 0.00,60.00,Thursday
8,1280638709.4675658
14989,24196975.466216517
15038,0.0
15513,0.0
2,5, 1, 5, 0, 7, 0.00,60.00,Thursday
8,3392223986.3301427
14989,22286707.416054917
15038,0.0
15513,0.0
2,5, 1, 5, 0, 8, 0.00,60.00,Thursday
8,3435045762.1225488
14989,30473354.47452396
15038,0.0
15513,0.0
2,5, 1, 5, 0, 9, 0.00,60.00,Thursday
8,3730355585.627878
14989,30094121.72165279
15038,0.0
15513,0.0
2,5, 1, 5, 0,10, 0.00,60.00,Thursday
8,3635573003.8906195
14989,22455971.542358374
15038,0.0
15513,0.0
2,5, 1, 5, 0,11, 0.00,60.00,Thursday
8,3164699988.1949388
14989,15941306.442046095
15038,0.0
15513,0.0
2,5, 1, 5, 0,12, 0.00,60.00,Thursday
8,2567110914.0577995
14989,9120875.063425322
15038,0.0
15513,0.0
2,5, 1, 5, 0,13, 0.00,60.00,Thursday
8,2251048849.645623
14989,9728378.09487063
15038,0.0
15513,0.0
2,5, 1, 5, 0,14, 0.00,60.00,Thursday
8,2015593256.5960923
14989,8535132.06322366
15038,0.0
15513,0.0
2,5, 1, 5, 0,15, 0.00,60.00,Thursday
8,1788106621.0702015
14989,8263214.466661476
15038,0.0
15513,0.0
2,5, 1, 5, 0,16, 0.00,60.00,Thursday
8,2044089206.0365782
14989,11467655.637081445
15038,0.0
15513,0.0
2,5, 1, 5, 0,17, 0.00,60.00,Thursday
8,2364769415.599803
14989,13404691.654879693
15038,0.0
15513,0.0
2,5, 1, 5, 0,18, 0.00,60.00,Thursday
8,3009838969.240731
14989,10312398.64523415
15038,0.0
15513,0.0
2,5, 1, 5, 0,19, 0.00,60.00,Thursday
8,3490116510.492358
14989,9639789.30524593
15038,0.0
15513,0.0
2,5, 1, 5, 0,20, 0.00,60.00,Thursday
8,3384830936.1857888
14989,10579708.229338754
15038,0.0
15513,0.0
2,5, 1, 5, 0,21, 0.00,60.00,Thursday
8,3134114556.748456
14989,13084601.621228397
15038,0.0
15513,0.0
2,5, 1, 5, 0,22, 0.00,60.00,Thursday
8,2643773058.7894375
14989,14261224.498935294
15038,0.0
15513,0.0
2,5, 1, 5, 0,23, 0.00,60.00,Thursday
8,2352603673.8411939
14989,8605303.916261819
15038,0.0
15513,0.0
2,5, 1, 5, 0,24, 0.00,60.00,Thursday
8,1215605960.1308425
14989,9089138.104042774
15038,0.0
15513,0.0
2,6, 1, 6, 0, 1, 0.00,60.00,Friday
8,472279446.96243837
14989,9728594.647479535
15038,0.0
15513,0.0
2,6, 1, 6, 0, 2, 0.00,60.00,Friday
8,350016697.79846176
14989,10234506.10844949
15038,0.0
15513,0.0
2,6, 1, 6, 0, 3, 0.00,60.00,Friday
8,267616800.96281729
14989,10948065.36307973
15038,0.0
15513,0.0
2,6, 1, 6, 0, 4, 0.00,60.00,Friday
8,281172644.07035806
14989,11493939.544144893
15038,0.0
15513,0.0
2,6, 1, 6, 0, 5, 0.00,60.00,Friday
8,411452992.19780889
14989,13059203.210072274
15038,0.0
15513,0.0
2,6, 1, 6, 0, 6, 0.00,60.00,Friday
8,1281729902.687567
14989,23786091.400815138
15038,0.0
15513,0.0
2,6, 1, 6, 0, 7, 0.00,60.00,Friday
8,3439216606.235488
14989,23815495.21815972
15038,0.0
15513,0.0
2,6, 1, 6, 0, 8, 0.00,60.00,Friday
8,3446311487.8997957
14989,30860507.546515928
15038,0.0
15513,0.0
2,6, 1, 6, 0, 9, 0.00,60.00,Friday
8,3822540057.264249
14989,32706337.623123517
15038,0.0
15513,0.0
2,6, 1, 6, 0,10, 0.00,60.00,Friday
8,3507481229.0474307
14989,19161592.050437657
15038,0.0
15513,0.0
2,6, 1, 6, 0,11, 0.00,60.00,Friday
8,3093560308.217994
14989,9463413.310355794
15038,0.0
15513,0.0
2,6, 1, 6, 0,12, 0.00,60.00,Friday
8,2512257401.674575
14989,8640072.08819282
15038,0.0
15513,0.0
2,6, 1, 6, 0,13, 0.00,60.00,Friday
8,2225463946.0007998
14989,8588842.970345892
15038,0.0
15513,0.0
2,6, 1, 6, 0,14, 0.00,60.00,Friday
8,2006039968.8475619
14989,8462793.653460637
15038,0.0
15513,0.0
2,6, 1, 6, 0,15, 0.00,60.00,Friday
8,1804692066.9838472
14989,10004838.804913013
15038,0.0
15513,0.0
2,6, 1, 6, 0,16, 0.00,60.00,Friday
8,2027853865.9693382
14989,11183264.380631328
15038,0.0
15513,0.0
2,6, 1, 6, 0,17, 0.00,60.00,Friday
8,2438711061.9700219
14989,13488391.45263918
15038,0.0
15513,0.0
2,6, 1, 6, 0,18, 0.00,60.00,Friday
8,2996328255.085736
14989,9956963.640705591
15038,0.0
15513,0.0
2,6, 1, 6, 0,19, 0.00,60.00,Friday
8,3435508587.766447
14989,9268221.449946613
15038,0.0
15513,0.0
2,6, 1, 6, 0,20, 0.00,60.00,Friday
8,3328328221.8897798
14989,9956176.513632624
15038,0.0
15513,0.0
2,6, 1, 6, 0,21, 0.00,60.00,Friday
8,3107540207.6162669
14989,11917042.763967213
15038,0.0
15513,0.0
2,6, 1, 6, 0,22, 0.00,60.00,Friday
8,2593532088.110991
14989,13334193.726579227
15038,0.0
15513,0.0
2,6, 1, 6, 0,23, 0.00,60.00,Friday
8,2311060856.153107
14989,7989719.173895305
15038,0.0
15513,0.0
2,6, 1, 6, 0,24, 0.00,60.00,Friday
8,1216149280.7442859
14989,9607105.837996919
15038,0.0
15513,0.0
2,7, 1, 7, 0, 1, 0.00,60.00,Saturday
8,485170093.6971143
14989,10942994.071648498
15038,0.0
15513,0.0
2,7, 1, 7, 0, 2, 0.00,60.00,Saturday
8,358600450.9625677
14989,10985147.542049703
15038,0.0
15513,0.0
2,7, 1, 7, 0, 3, 0.00,60.00,Saturday
8,274388980.6376078
14989,12213625.225485584
15038,0.0
15513,0.0
2,7, 1, 7, 0, 4, 0.00,60.00,Saturday
8,304682162.0778071
14989,12964922.945106857
15038,0.0
15513,0.0
2,7, 1, 7, 0, 5, 0.00,60.00,Saturday
8,420698567.20914748
14989,13484889.244840812
15038,0.0
15513,0.0
2,7, 1, 7, 0, 6, 0.00,60.00,Saturday
8,1267357533.9725204
14989,23571476.3201105
15038,0.0
15513,0.0
2,7, 1, 7, 0, 7, 0.00,60.00,Saturday
8,3402682194.591065
14989,23152824.040998736
15038,0.0
15513,0.0
2,7, 1, 7, 0, 8, 0.00,60.00,Saturday
8,3430139829.1453297
14989,21091287.999611856
15038,0.0
15513,0.0
2,7, 1, 7, 0, 9, 0.00,60.00,Saturday
8,3645822055.9290878
14989,15347137.411147092
15038,0.0
15513,0.0
2,7, 1, 7, 0,10, 0.00,60.00,Saturday
8,3466740762.573862
14989,9877790.624939036
15038,0.0
15513,0.0
2,7, 1, 7, 0,11, 0.00,60.00,Saturday
8,3023585671.4359848
14989,8728115.721421814
15038,0.0
15513,0.0
2,7, 1, 7, 0,12, 0.00,60.00,Saturday
8,2458400649.026546
14989,8251457.451515924
15038,0.0
15513,0.0
2,7, 1, 7, 0,13, 0.00,60.00,Saturday
8,2140845223.2770465
14989,7792855.004216725
15038,0.0
15513,0.0
2,7, 1, 7, 0,14, 0.00,60.00,Saturday
8,1915597194.3516954
14989,7627569.175679493
15038,0.0
15513,0.0
2,7, 1, 7, 0,15, 0.00,60.00,Saturday
8,1695229882.5836604
14989,7568800.849803297
15038,0.0
15513,0.0
2,7, 1, 7, 0,16, 0.00,60.00,Saturday
8,1891620392.0345333
14989,7473028.683029845
15038,0.0
15513,0.0
2,7, 1, 7, 0,17, 0.00,60.00,Saturday
8,2241716153.9547808
14989,7934504.015432192
15038,0.0
15513,0.0
2,7, 1, 7, 0,18, 0.00,60.00,Saturday
8,2928845958.21796
14989,8094453.45664976
15038,0.0
15513,0.0
2,7, 1, 7, 0,19, 0.00,60.00,Saturday
8,3404915663.4934685
14989,8834423.750308015
15038,0.0
15513,0.0
2,7, 1, 7, 0,20, 0.00,60.00,Saturday
8,3297761544.803552
14989,9589838.018798663
15038,0.0
15513,0.0
2,7, 1, 7, 0,21, 0.00,60.00,Saturday
8,3046926714.2584426
14989,10994111.586924755
15038,0.0
15513,0.0
2,7, 1, 7, 0,22, 0.00,60.00,Saturday
8,2553581751.190116
14989,13190922.512744654
15038,0.0
15513,0.0
2,7, 1, 7, 0,23, 0.00,60.00,Saturday
8,2300720946.6150276
14989,9005652.389293045
15038,0.0
15513,0.0
2,7, 1, 7, 0,24, 0.00,60.00,Saturday
8,1217700614.7276495
14989,10576526.11837304
15038,0.0
15513,0.0
2,8, 1, 8, 0, 1, 0.00,60.00,Sunday
8,457864672.71812716
14989,10345972.151496444
15038,0.0
15513,0.0
2,8, 1, 8, 0, 2, 0.00,60.00,Sunday
8,341084020.7192098
14989,10799117.85660176
15038,0.0
15513,0.0
2,8, 1, 8, 0, 3, 0.00,60.00,Sunday
8,240289536.9288656
14989,10745686.380228904
15038,0.0
15513,0.0
2,8, 1, 8, 0, 4, 0.00,60.00,Sunday
8,256574311.9327758
14989,11036421.53261216
15038,0.0
15513,0.0
2,8, 1, 8, 0, 5, 0.00,60.00,Sunday
8,381057743.33988246
14989,11702935.081658019
15038,0.0
15513,0.0
2,8, 1, 8, 0, 6, 0.00,60.00,Sunday
8,1232792200.8277729
14989,22073214.92463878
15038,0.0
15513,0.0
2,8, 1, 8, 0, 7, 0.00,60.00,Sunday
8,3358666347.6607286
14989,20528437.734955148
15038,0.0
15513,0.0
2,8, 1, 8, 0, 8, 0.00,60.00,Sunday
8,3413166818.7346417
14989,20325967.88327183
15038,0.0
15513,0.0
2,8, 1, 8, 0, 9, 0.00,60.00,Sunday
8,3557144802.5396358
14989,17135759.04512248
15038,0.0
15513,0.0
2,8, 1, 8, 0,10, 0.00,60.00,Sunday
8,3704846078.3020517
14989,19562617.20646566
15038,0.0
15513,0.0
2,8, 1, 8, 0,11, 0.00,60.00,Sunday
8,3437624329.617281
14989,20434654.046140084
15038,0.0
15513,0.0
2,8, 1, 8, 0,12, 0.00,60.00,Sunday
8,2892458798.2741324
14989,19892763.516949864
15038,0.0
15513,0.0
2,8, 1, 8, 0,13, 0.00,60.00,Sunday
8,2561351033.317722
14989,19396234.696417538
15038,0.0
15513,0.0
2,8, 1, 8, 0,14, 0.00,60.00,Sunday
8,2367081423.3978707
14989,19592791.96285558
15038,0.0
15513,0.0
2,8, 1, 8, 0,15, 0.00,60.00,Sunday
8,2141310771.1536358
14989,19900024.065103599
15038,0.0
15513,0.0
2,8, 1, 8, 0,16, 0.00,60.00,Sunday
8,2353457956.8391439
14989,20257358.057464348
15038,0.0
15513,0.0
2,8, 1, 8, 0,17, 0.00,60.00,Sunday
8,2621483556.730975
14989,19429250.669196227
15038,0.0
15513,0.0
2,8, 1, 8, 0,18, 0.00,60.00,Sunday
8,3259228568.6619117
14989,19362942.065176056
15038,0.0
15513,0.0
2,8, 1, 8, 0,19, 0.00,60.00,Sunday
8,3658343726.7174828
14989,19304739.48405692
15038,0.0
15513,0.0
2,8, 1, 8, 0,20, 0.00,60.00,Sunday
8,3520068299.6352379
14989,18843652.750729186
15038,0.0
15513,0.0
2,8, 1, 8, 0,21, 0.00,60.00,Sunday
8,3233219213.7092025
14989,18295387.75449854
15038,0.0
15513,0.0
2,8, 1, 8, 0,22, 0.00,60.00,Sunday
8,2695768756.7772185
14989,18238134.231602767
15038,0.0
15513,0.0
2,8, 1, 8, 0,23, 0.00,60.00,Sunday
8,2400623234.883652
14989,10219580.556980912
15038,0.0
15513,0.0
2,8, 1, 8, 0,24, 0.00,60.00,Sunday
8,1252889372.7331823
14989,11344357.144352179
15038,0.0
15513,0.0
2,9, 1, 9, 0, 1, 0.00,60.00,Monday
8,500079869.95778158
14989,11295234.907306273
15038,0.0
15513,0.0
2,9, 1, 9, 0, 2, 0.00,60.00,Monday
8,401820116.1193946
14989,12146234.29841093
15038,0.0
15513,0.0
2,9, 1, 9, 0, 3, 0.00,60.00,Monday
8,359883826.64679369
14989,14738318.760624052
15038,0.0
15513,0.0
2,9, 1, 9, 0, 4, 0.00,60.00,Monday
8,356926088.5788631
14989,14512987.00975631
15038,0.0
15513,0.0
2,9, 1, 9, 0, 5, 0.00,60.00,Monday
8,461181983.1582107
14989,14169110.386989665
15038,0.0
15513,0.0
2,9, 1, 9, 0, 6, 0.00,60.00,Monday
8,1337430537.7640744
14989,24927738.53710173
15038,0.0
15513,0.0
2,9, 1, 9, 0, 7, 0.00,60.00,Monday
8,3462107665.398718
14989,23035719.59356675
15038,0.0
15513,0.0
2,9, 1, 9, 0, 8, 0.00,60.00,Monday
8,3494193062.841278
14989,34188801.84556374
15038,0.0
15513,0.0
2,9, 1, 9, 0, 9, 0.00,60.00,Monday
8,3842034620.7079708
14989,33327364.177434453
15038,0.0
15513,0.0
2,9, 1, 9, 0,10, 0.00,60.00,Monday
8,3767579398.58257
14989,26001348.229355717
15038,0.0
15513,0.0
2,9, 1, 9, 0,11, 0.00,60.00,Monday
8,3391803466.1845815
14989,22946579.581730039
15038,0.0
15513,0.0
2,9, 1, 9, 0,12, 0.00,60.00,Monday
8,2823034160.297467
14989,20590920.577741639
15038,0.0
15513,0.0
2,9, 1, 9, 0,13, 0.00,60.00,Monday
8,2376233700.481561
14989,20461624.134750584
15038,0.0
15513,0.0
2,9, 1, 9, 0,14, 0.00,60.00,Monday
8,2154923534.7072336
14989,18907914.97596629
15038,0.0
15513,0.0
2,9, 1, 9, 0,15, 0.00,60.00,Monday
8,1926478594.7070015
14989,18258344.88821842
15038,0.0
15513,0.0
2,9, 1, 9, 0,16, 0.00,60.00,Monday
8,2111190980.1453396
14989,16828375.424536729
15038,0.0
15513,0.0
2,9, 1, 9, 0,17, 0.00,60.00,Monday
8,2389267186.919498
14989,14530775.6119535
15038,0.0
15513,0.0
2,9, 1, 9, 0,18, 0.00,60.00,Monday
8,3041876877.915506
14989,11537057.012041852
15038,0.0
15513,0.0
2,9, 1, 9, 0,19, 0.00,60.00,Monday
8,3453760354.1425778
14989,9181723.087311212
15038,0.0
15513,0.0
2,9, 1, 9, 0,20, 0.00,60.00,Monday
8,3332907381.0147407
14989,9900950.485836499
15038,0.0
15513,0.0
2,9, 1, 9, 0,21, 0.00,60.00,Monday
8,3058281503.9330337
14989,10343477.040633817
15038,0.0
15513,0.0
2,9, 1, 9, 0,22, 0.00,60.00,Monday
8,2538348490.436568
14989,10898595.647147775
15038,0.0
15513,0.0
2,9, 1, 9, 0,23, 0.00,60.00,Monday
8,2232161645.8400905
14989,5803723.413096793
15038,0.0
15513,0.0
2,9, 1, 9, 0,24, 0.00,60.00,Monday
8,1189859233.0224064
14989,7246357.268149698
15038,0.0
15513,0.0
2,10, 1,10, 0, 1, 0.00,60.00,Tuesday
8,441551861.1800129
14989,7868932.069425271
15038,0.0
15513,0.0
2,10, 1,10, 0, 2, 0.00,60.00,Tuesday
8,323062560.0088361
14989,8901339.193113517
15038,0.0
15513,0.0
2,10, 1,10, 0, 3, 0.00,60.00,Tuesday
8,228220079.0894264
14989,9737744.182778426
15038,0.0
15513,0.0
2,10, 1,10, 0, 4, 0.00,60.00,Tuesday
8,234979831.67717076
14989,9639159.958125469
15038,0.0
15513,0.0
2,10, 1,10, 0, 5, 0.00,60.00,Tuesday
8,354767418.39560237
14989,10374243.898648866
15038,0.0
15513,0.0
2,10, 1,10, 0, 6, 0.00,60.00,Tuesday
8,1206423994.4066156
14989,20774108.75107063
15038,0.0
15513,0.0
2,10, 1,10, 0, 7, 0.00,60.00,Tuesday
8,3340658480.178895
14989,19794698.866855407
15038,0.0
15513,0.0
2,10, 1,10, 0, 8, 0.00,60.00,Tuesday
8,3375442285.8106439
14989,27661024.104708949
15038,0.0
15513,0.0
2,10, 1,10, 0, 9, 0.00,60.00,Tuesday
8,3579771215.6056649
14989,27748054.916524676
15038,0.0
15513,0.0
2,10, 1,10, 0,10, 0.00,60.00,Tuesday
8,3527094335.872581
14989,21667119.460051788
15038,0.0
15513,0.0
2,10, 1,10, 0,11, 0.00,60.00,Tuesday
8,3146223390.037165
14989,16355564.924723629
15038,0.0
15513,0.0
2,10, 1,10, 0,12, 0.00,60.00,Tuesday
8,2595397230.1630427
14989,14340919.203742385
15038,0.0
15513,0.0
2,10, 1,10, 0,13, 0.00,60.00,Tuesday
8,2264748420.234126
14989,13213038.413772058
15038,0.0
15513,0.0
2,10, 1,10, 0,14, 0.00,60.00,Tuesday
8,2042919135.4777106
14989,11436066.985093845
15038,0.0
15513,0.0
2,10, 1,10, 0,15, 0.00,60.00,Tuesday
8,1826806329.6987835
14989,11759896.779806681
15038,0.0
15513,0.0
2,10, 1,10, 0,16, 0.00,60.00,Tuesday
8,2048325761.676243
14989,12494834.006743283
15038,0.0
15513,0.0
2,10, 1,10, 0,17, 0.00,60.00,Tuesday
8,2386484187.922163
14989,15128698.607201975
15038,0.0
15513,0.0
2,10, 1,10, 0,18, 0.00,60.00,Tuesday
8,3196684453.0837266
14989,12129529.433597185
15038,0.0
15513,0.0
2,10, 1,10, 0,19, 0.00,60.00,Tuesday
8,3592711512.7860367
14989,9958405.00886843
15038,0.0
15513,0.0
2,10, 1,10, 0,20, 0.00,60.00,Tuesday
8,3482467170.5323874
14989,11488279.63670522
15038,0.0
15513,0.0
2,10, 1,10, 0,21, 0.00,60.00,Tuesday
8,3214867955.083906
14989,12960179.877504725
15038,0.0
15513,0.0
2,10, 1,10, 0,22, 0.00,60.00,Tuesday
8,2715464430.955913
14989,14493738.834947598
15038,0.0
15513,0.0
2,10, 1,10, 0,23, 0.00,60.00,Tuesday
8,2365709186.9845216
14989,7583938.432486139
15038,0.0
15513,0.0
2,10, 1,10, 0,24, 0.00,60.00,Tuesday
8,1239975415.7963906
14989,9042878.927309823
15038,0.0
15513,0.0
2,11, 1,11, 0, 1, 0.00,60.00,Wednesday
8,515741623.5692076
14989,10456365.349625335
15038,0.0
15513,0.0
2,11, 1,11, 0, 2, 0.00,60.00,Wednesday
8,439357183.1236961
14989,12276120.954152015
15038,0.0
15513,0.0
2,11, 1,11, 0, 3, 0.00,60.00,Wednesday
8,366543995.5674195
14989,13152196.960158337
15038,0.0
15513,0.0
2,11, 1,11, 0, 4, 0.00,60.00,Wednesday
8,407454875.0459676
14989,14520770.35152135
15038,0.0
15513,0.0
2,11, 1,11, 0, 5, 0.00,60.00,Wednesday
8,504130266.2455336
14989,13868568.697464554
15038,0.0
15513,0.0
2,11, 1,11, 0, 6, 0.00,60.00,Wednesday
8,1358910971.391328
14989,23807943.859417805
15038,0.0
15513,0.0
2,11, 1,11, 0, 7, 0.00,60.00,Wednesday
8,3445258191.052896
14989,22689000.736414326
15038,0.0
15513,0.0
2,11, 1,11, 0, 8, 0.00,60.00,Wednesday
8,3482233163.628055
14989,30618244.258334854
15038,0.0
15513,0.0
2,11, 1,11, 0, 9, 0.00,60.00,Wednesday
8,3841828393.1695458
14989,30189169.4746789
15038,0.0
15513,0.0
2,11, 1,11, 0,10, 0.00,60.00,Wednesday
8,3722225413.101387
14989,19992374.941801307
15038,0.0
15513,0.0
2,11, 1,11, 0,11, 0.00,60.00,Wednesday
8,3085447204.667967
14989,8859977.851593759
15038,0.0
15513,0.0
2,11, 1,11, 0,12, 0.00,60.00,Wednesday
8,2512820596.254832
14989,8648901.904950049
15038,0.0
15513,0.0
2,11, 1,11, 0,13, 0.00,60.00,Wednesday
8,2193190466.501332
14989,8323573.892058757
15038,1267098.578654448
15513,0.0
2,11, 1,11, 0,14, 0.00,60.00,Wednesday
8,1968614623.8864725
14989,8191555.934990535
15038,0.0
15513,0.0
2,11, 1,11, 0,15, 0.00,60.00,Wednesday
8,1755149346.6818908
14989,7976739.06395281
15038,0.0
15513,0.0
2,11, 1,11, 0,16, 0.00,60.00,Wednesday
8,1960021309.2806833
14989,7837893.501488915
15038,0.0
15513,0.0
2,11, 1,11, 0,17, 0.00,60.00,Wednesday
8,2285249456.694576
14989,7918851.152719308
15038,0.0
15513,0.0
2,11, 1,11, 0,18, 0.00,60.00,Wednesday
8,2951933676.42246
14989,8086659.5573350549
15038,0.0
15513,0.0
2,11, 1,11, 0,19, 0.00,60.00,Wednesday
8,3407148730.135954
14989,8203123.14627268
15038,0.0
15513,0.0
2,11, 1,11, 0,20, 0.00,60.00,Wednesday
8,3302486533.7193357
14989,8724706.27085178
15038,0.0
15513,0.0
2,11, 1,11, 0,21, 0.00,60.00,Wednesday
8,3032864062.754449
14989,9402103.032584819
15038,0.0
15513,0.0
2,11, 1,11, 0,22, 0.00,60.00,Wednesday
8,2619548380.3117496
14989,11313413.494519962
15038,0.0
15513,0.0
2,11, 1,11, 0,23, 0.00,60.00,Wednesday
8,2310049370.5860917
14989,6482482.96459131
15038,0.0
15513,0.0
2,11, 1,11, 0,24, 0.00,60.00,Wednesday
8,1202660449.9407104
14989,7607192.887080262
15038,0.0
15513,0.0
2,12, 1,12, 0, 1, 0.00,60.00,Thursday
8,481996546.1451434
14989,9376156.695701158
15038,0.0
15513,0.0
2,12, 1,12, 0, 2, 0.00,60.00,Thursday
8,384425706.0290519
14989,10646092.614055302
15038,0.0
15513,0.0
2,12, 1,12, 0, 3, 0.00,60.00,Thursday
8,289044575.7924832
14989,10769763.887721515
15038,0.0
15513,0.0
2,12, 1,12, 0, 4, 0.00,60.00,Thursday
8,306230730.2152602
14989,11244116.835947616
15038,0.0
15513,0.0
2,12, 1,12, 0, 5, 0.00,60.00,Thursday
8,448302019.08047607
14989,12495268.729996067
15038,0.0
15513,0.0
2,12, 1,12, 0, 6, 0.00,60.00,Thursday
8,1312218785.552033
14989,23924890.37546427
15038,0.0
15513,0.0
2,12, 1,12, 0, 7, 0.00,60.00,Thursday
8,3385020325.521943
14989,21158640.767675789
15038,0.0
15513,0.0
2,12, 1,12, 0, 8, 0.00,60.00,Thursday
8,3440521466.0371415
14989,28737153.81942472
15038,0.0
15513,0.0
2,12, 1,12, 0, 9, 0.00,60.00,Thursday
8,3762628362.8761026
14989,29376434.88211972
15038,0.0
15513,0.0
2,12, 1,12, 0,10, 0.00,60.00,Thursday
8,3670042847.7051508
14989,21679628.30522273
15038,0.0
15513,0.0
2,12, 1,12, 0,11, 0.00,60.00,Thursday
8,3276247570.1105077
14989,16948745.221977913
15038,0.0
15513,0.0
2,12, 1,12, 0,12, 0.00,60.00,Thursday
8,2596499699.6347835
14989,14141161.731043749
15038,0.0
15513,0.0
2,12, 1,12, 0,13, 0.00,60.00,Thursday
8,2258779920.180083
14989,12240831.360149837
15038,0.0
15513,0.0
2,12, 1,12, 0,14, 0.00,60.00,Thursday
8,2017479434.571351
14989,9265957.461993959
15038,0.0
15513,0.0
2,12, 1,12, 0,15, 0.00,60.00,Thursday
8,1804268225.472889
14989,9821073.53548084
15038,0.0
15513,0.0
2,12, 1,12, 0,16, 0.00,60.00,Thursday
8,2035110636.691125
14989,11532972.72561239
15038,0.0
15513,0.0
2,12, 1,12, 0,17, 0.00,60.00,Thursday
8,2347424172.924492
14989,12301431.807203293
15038,0.0
15513,0.0
2,12, 1,12, 0,18, 0.00,60.00,Thursday
8,3020235165.796298
14989,10987192.503912759
15038,0.0
15513,0.0
2,12, 1,12, 0,19, 0.00,60.00,Thursday
8,3478457378.964987
14989,9848039.539061182
15038,0.0
15513,0.0
2,12, 1,12, 0,20, 0.00,60.00,Thursday
8,3470524715.290978
14989,12499256.962225452
15038,0.0
15513,0.0
2,12, 1,12, 0,21, 0.00,60.00,Thursday
8,3298779088.8339049
14989,15905436.144791747
15038,0.0
15513,0.0
2,12, 1,12, 0,22, 0.00,60.00,Thursday
8,2791505114.6980288
14989,17143834.797860266
15038,0.0
15513,0.0